<?xml version="1.0"?>
<VTKFile type="PolyData" version="0.1" byte_order="LittleEndian" compressor="vtkZLibDataCompressor">
	<PolyData>
		<Piece NumberOfPoints="9882" NumberOfVerts="0" NumberOfLines="0" NumberOfStrips="0" NumberOfPolys="19776">
		<PointData Normals="Normals">
		<DataArray type="Float32" Name="Normals" NumberOfComponents="3" format="ascii">
			 0.422755  0.862971 -0.276694
			 0.694499  0.623487 -0.359074
			 0.202951  0.771415 -0.603100
			 0.451386  0.889966 -0.064888
			 0.769956  0.631653 -0.090460
			-0.028646  0.907685 -0.418674
			-0.035638  0.992793 -0.114422
			 0.389889  0.623674 -0.677508
			 0.612688  0.476862 -0.630251
			 0.732024  0.567153 -0.377463
			 0.785988  0.597628 -0.158316
			-0.136546  0.685747 -0.714917
			 0.004313  0.630850 -0.775893
			 0.453681  0.890012  0.045301
			 0.775999  0.630355  0.021866
			-0.063021  0.998011 -0.001767
			 0.792940  0.609254 -0.007532
			-0.323304  0.821689 -0.469364
			-0.341105  0.928307 -0.147967
			-0.350680  0.936491 -0.002915
			 0.281460  0.478334 -0.831852
			 0.574180  0.568731 -0.588950
			 0.430815  0.552877 -0.713250
			 0.638980  0.653185 -0.406268
			 0.705036  0.666789 -0.241490
			 0.727776  0.681111 -0.080191
			-0.448826  0.676342 -0.584052
			-0.116932  0.660925 -0.741286
			-0.271765  0.700895 -0.659462
			 0.097408  0.622329 -0.776671
			 0.340325  0.896836  0.282603
			 0.766471  0.625673  0.145104
			-0.069619  0.987190  0.143562
			 0.797141  0.588485  0.135099
			-0.384415  0.907560  0.168995
			 0.725895  0.683949  0.072736
			-0.585592  0.772472 -0.245701
			-0.601165  0.796539 -0.064237
			-0.593575  0.800608  0.081828
			 0.491663  0.733347 -0.469542
			 0.399150  0.734226 -0.549173
			 0.284393  0.813217 -0.507739
			 0.566724  0.711492 -0.415455
			 0.453671  0.728628 -0.513113
			 0.614798  0.722187 -0.316967
			 0.627731  0.760201 -0.167474
			 0.628686  0.777297 -0.023718
			-0.748172  0.576427 -0.328588
			-0.696830  0.539950 -0.472104
			-0.066665  0.805162 -0.589296
			-0.508583  0.780813 -0.362869
			 0.614545  0.709906  0.344046
			 0.166586  0.861910  0.478916
			-0.207439  0.905070  0.371237
			 0.771982  0.576464  0.267828
			 0.712913  0.680613  0.168882
			 0.722405  0.661899  0.200054
			-0.511836  0.787166  0.344084
			-0.591900  0.768459  0.243157
			 0.601458  0.791355  0.109571
			-0.829868  0.546058 -0.114630
			-0.834816  0.550521  0.002932
			-0.809826  0.564128  0.161063
			 0.412556  0.823917 -0.388533
			 0.328682  0.823854 -0.461771
			 0.496086  0.825170 -0.270173
			 0.283682  0.886351 -0.365932
			 0.324892  0.862416 -0.388180
			 0.394449  0.890861 -0.225339
			-0.051813  0.953329 -0.297455
			 0.677594  0.697699 -0.232556
			 0.505405  0.791224 -0.344281
			 0.522048  0.845456 -0.112558
			 0.513053  0.858357  0.000985
			-0.969693  0.187961 -0.156095
			-0.992116  0.121925 -0.028997
			-0.483498  0.854381 -0.190425
			-0.831201  0.553018 -0.057237
			 0.390127  0.808294  0.440978
			-0.133983  0.825032  0.548973
			-0.379411  0.789520  0.482396
			 0.707659  0.586740  0.393642
			 0.684604  0.605695  0.405525
			 0.602039  0.784886  0.146640
			 0.553441  0.805774  0.210789
			-0.497609  0.723626  0.478278
			-0.709811  0.624598  0.325646
			-0.569018  0.694849  0.439776
			 0.462115  0.882177  0.090627
			-0.990987  0.129133 -0.035635
			-0.989223  0.132748  0.061772
			-0.944366  0.249335  0.214489
			 0.404565  0.813504 -0.417779
			 0.518676  0.780932 -0.348025
			 0.547118  0.812546 -0.201074
			 0.330767  0.890699 -0.311848
			 0.207614  0.959906 -0.188353
			 0.207174  0.946385 -0.247860
			 0.298467  0.901539 -0.313282
			 0.406265  0.867751 -0.286281
			-0.076623  0.978397 -0.192008
			 0.665827  0.636606 -0.389111
			 0.553965  0.767052 -0.323657
			 0.598417  0.798761 -0.062270
			 0.586310  0.810067  0.005679
			-0.939968 -0.340690  0.019743
			-0.941029 -0.337133  0.028391
			-0.896455 -0.307533  0.319049
			-0.846487 -0.471113  0.248016
			-0.964796 -0.010752  0.262780
			-0.464854  0.830567 -0.306707
			-0.755311  0.624025 -0.200245
			 0.348253  0.693675  0.630504
			-0.066495  0.788756  0.611099
			-0.385562  0.739777  0.551427
			-0.219250  0.751371  0.622392
			 0.587357  0.466610  0.661277
			 0.424063  0.542337  0.725287
			 0.376693  0.811969  0.445879
			 0.383963  0.904075  0.187674
			-0.787413  0.513998  0.340274
			-0.458085  0.733506  0.502122
			 0.546978  0.832899  0.084235
			-0.931381 -0.362999  0.027579
			-0.954845 -0.289935  0.064870
			-0.990645 -0.033375  0.132318
			 0.513137  0.793287 -0.327698
			 0.659039  0.715527 -0.231706
			 0.712701  0.696120 -0.086452
			 0.487974  0.847310 -0.209636
			 0.440969  0.880287 -0.175045
			 0.440692  0.892610 -0.095071
			 0.131331  0.986148 -0.101312
			 0.072079  0.978505 -0.193215
			 0.107881  0.905850 -0.409630
			 0.240926  0.763742 -0.598877
			-0.137924  0.897000 -0.419961
			 0.330253  0.602181 -0.726850
			 0.499327  0.481001 -0.720631
			 0.490314  0.700096 -0.519093
			 0.743599  0.668599 -0.005972
			 0.744012  0.667246  0.035058
			-0.768763 -0.626130  0.130245
			-0.743895 -0.665375  0.062422
			-0.834890 -0.445153  0.323724
			-0.832215 -0.464148  0.303289
			-0.844797 -0.384996  0.371612
			-0.761489 -0.622316  0.181267
			-0.905062  0.147072  0.399040
			-0.725414 -0.615261  0.308590
			-0.511112  0.543471 -0.665886
			-0.658196  0.588495 -0.469522
			-0.696168  0.030271 -0.717241
			-0.906032  0.262334 -0.332095
			-0.705411  0.283532 -0.649619
			 0.150978  0.600597  0.785168
			-0.111807  0.656555  0.745946
			 0.289494  0.523392  0.801407
			 0.150163  0.736691  0.659346
			 0.272208  0.561721  0.781263
			 0.328292  0.461161  0.824351
			 0.335766  0.877410  0.342656
			 0.159457  0.851248  0.499951
			 0.503779  0.837672  0.210980
			-0.823603  0.453195  0.341017
			-0.525253  0.516259  0.676452
			 0.709141  0.696643  0.108664
			-0.789684 -0.612944 -0.026435
			-0.905334 -0.422415 -0.043997
			-0.976655 -0.061599  0.205791
			-0.948698 -0.305341  0.082092
			 0.659515  0.725678 -0.196038
			 0.729363  0.664460 -0.162855
			 0.728071  0.667351 -0.156701
			 0.735012  0.676627 -0.043975
			 0.732743  0.679761  0.031807
			 0.635900  0.748889 -0.186538
			 0.736660  0.632859 -0.238373
			 0.464954  0.880077 -0.096347
			 0.780772  0.610338 -0.133722
			 0.060281  0.993268 -0.098916
			-0.195778  0.954869 -0.223376
			-0.191614  0.900600 -0.390133
			 0.083593  0.856029 -0.510124
			-0.189490  0.696361 -0.692225
			-0.280364  0.468444 -0.837828
			 0.073205  0.368816 -0.926615
			 0.114212  0.736758 -0.666440
			-0.001985  0.383017 -0.923739
			 0.757675  0.652229  0.022930
			 0.753207  0.655679  0.052583
			-0.756172 -0.654009 -0.021819
			-0.792595 -0.545160  0.273116
			-0.757963 -0.595784  0.265583
			-0.863458 -0.338672  0.373819
			-0.777956 -0.558804  0.287268
			-0.790628 -0.594422  0.146866
			-0.878170 -0.361167  0.313649
			-0.876439 -0.479460  0.044415
			-0.872941 -0.438630  0.213487
			-0.700457 -0.622687 -0.348742
			-0.783477 -0.584152 -0.211969
			-0.686469  0.142518 -0.713056
			-0.761222 -0.197013 -0.617840
			 0.100218  0.443294  0.890756
			-0.281315  0.341404  0.896831
			 0.016431  0.906261  0.422398
			 0.211584  0.629981  0.747232
			-0.066132  0.797907  0.599142
			 0.018341  0.448365  0.893662
			 0.471984  0.823902  0.313713
			 0.373862  0.852217  0.365998
			 0.216672  0.868242  0.446328
			 0.623452  0.747122  0.230470
			-0.875402  0.111785  0.470292
			-0.745666  0.020615  0.666001
			 0.693499  0.711054  0.116021
			-0.823584 -0.538562 -0.177936
			-0.895309 -0.416848 -0.157033
			-0.922476 -0.385777  0.014600
			-0.920236 -0.242381  0.307274
			-0.920456 -0.298226  0.252631
			 0.787879  0.591397 -0.171745
			 0.745181  0.647369 -0.160059
			 0.744160  0.648981 -0.158267
			 0.766845  0.631383 -0.115345
			 0.750592  0.660766 -0.000890
			 0.721011  0.692282  0.029824
			 0.842036  0.481175 -0.243816
			 0.886093  0.272612 -0.374863
			 0.916746  0.346306 -0.199122
			 0.471389  0.870616 -0.140787
			 0.834525  0.540417 -0.107320
			-0.020028  0.992551 -0.120175
			-0.284043  0.949456 -0.133616
			-0.359562  0.900991 -0.242756
			-0.119733  0.899552 -0.420085
			-0.426027  0.284331 -0.858869
			-0.282185  0.629507 -0.723942
			-0.423701  0.820065 -0.384670
			-0.476419  0.364610 -0.800053
			 0.726816  0.685933  0.035130
			 0.735581  0.675055  0.056755
			-0.849906 -0.500427 -0.165026
			-0.843414 -0.530494  0.085022
			-0.814615 -0.426751  0.392792
			-0.734175 -0.570609  0.367957
			-0.903499 -0.344687  0.254716
			-0.675033 -0.683474  0.277837
			-0.831067 -0.442861  0.336455
			-0.713650 -0.661489  0.230512
			-0.865577 -0.474956  0.158726
			-0.854899 -0.467290 -0.225361
			-0.970509 -0.170989 -0.169926
			-0.796736  0.306395 -0.520897
			-0.436846  0.187001  0.879884
			 0.192200  0.947492  0.255574
			-0.073213  0.993159  0.090964
			-0.303814  0.940781  0.150429
			-0.360092  0.503166  0.785594
			-0.429365  0.807292  0.404877
			 0.496611  0.835169  0.236372
			-0.805065 -0.148144  0.574389
			 0.616196  0.780864  0.102730
			 0.748003  0.659492  0.074584
			-0.861761 -0.426155 -0.275243
			-0.880557 -0.442913 -0.168667
			-0.891780 -0.451045 -0.035861
			-0.904332 -0.414753  0.100813
			-0.895118 -0.315089  0.315409
			 0.923744  0.251987 -0.288442
			 0.827683  0.518479 -0.214755
			 0.794323  0.584727 -0.164756
			 0.771102  0.628380 -0.102666
			 0.733467  0.679722  0.002316
			 0.943940  0.052994 -0.325836
			 0.946518  0.077596 -0.313182
			 0.923824  0.370796 -0.095183
			 0.906791  0.406059 -0.113339
			 0.908092  0.379814 -0.176384
			 0.853295  0.506411 -0.124238
			 0.605442  0.774285 -0.184180
			 0.167479  0.976231 -0.137562
			-0.262178  0.963781 -0.048875
			-0.469001  0.878109 -0.094673
			-0.384214  0.796762 -0.466422
			-0.510804  0.493380 -0.704028
			-0.375611  0.848957 -0.371736
			-0.673438  0.626927 -0.391719
			-0.574050  0.817253 -0.050635
			-0.505142  0.848407 -0.158229
			-0.787325  0.262654 -0.557792
			-0.805807  0.128432 -0.578084
			 0.734637  0.676833  0.046962
			 0.743230  0.665911  0.064586
			 0.781398  0.611822  0.122846
			-0.847597 -0.229989  0.478209
			-0.876405 -0.199768  0.438187
			-0.816790 -0.353505  0.455949
			-0.751382 -0.598482  0.277930
			-0.942342 -0.153208  0.297520
			-0.802407 -0.582546  0.129546
			-0.821366 -0.570168  0.016298
			-0.875591 -0.426691 -0.226442
			-0.864986 -0.411559 -0.287085
			-0.924227 -0.319629 -0.208909
			-0.875052 -0.277010 -0.396926
			-0.988817  0.133144 -0.067180
			-0.775535  0.009188  0.631237
			 0.406873  0.908132  0.098746
			 0.138355  0.990214  0.018295
			-0.100617  0.961592 -0.255376
			-0.497725  0.846526 -0.188846
			-0.517735  0.852741  0.069163
			-0.710317  0.523139  0.470931
			-0.654420  0.735714  0.174529
			 0.660983  0.741910  0.112565
			 0.762085  0.636174  0.120458
			 0.831014  0.540007  0.133447
			-0.897241 -0.434395 -0.079122
			-0.914648 -0.403948  0.015648
			-0.936937 -0.327015  0.123334
			-0.932400 -0.174061  0.316755
			 0.949706  0.105446 -0.294855
			 0.832973  0.446873 -0.326282
			 0.841446  0.348334 -0.413077
			 0.810930  0.553763 -0.189047
			 0.760506  0.643645 -0.085741
			 0.797849  0.587486 -0.135271
			 0.789017  0.612599 -0.046640
			 0.773748  0.632265  0.039439
			 0.933578  0.341415 -0.108939
			 0.908023  0.401209 -0.120524
			 0.905533  0.406565 -0.121308
			 0.872794  0.457638 -0.169701
			 0.841955  0.458701 -0.284086
			 0.796232  0.543748 -0.265241
			 0.780106  0.607528 -0.149480
			 0.925179  0.362386 -0.112786
			 0.562001  0.817729 -0.124400
			 0.179851  0.981430 -0.066706
			-0.249052  0.968213 -0.023167
			-0.478855  0.877894 -0.001159
			-0.460272  0.880948 -0.109908
			-0.666868  0.745027 -0.014856
			-0.810419  0.578806 -0.090583
			-0.823194  0.536709 -0.185190
			-0.942964  0.273306 -0.190057
			-0.534672  0.840856  0.084185
			-0.510442  0.859377  0.030340
			-0.952382 -0.122339 -0.279287
			-0.981138 -0.173909 -0.084407
			 0.801421  0.593245  0.076061
			 0.827163  0.549618  0.117142
			 0.830658  0.528953  0.173831
			 0.824800  0.536824  0.177553
			-0.844179 -0.048998  0.533817
			-0.883717 -0.084388  0.460351
			-0.875137 -0.051054  0.481175
			-0.893319  0.010102  0.449309
			-0.945011 -0.133841  0.298397
			-0.913915 -0.238942  0.328124
			-0.929250 -0.348037  0.123958
			-0.968548 -0.207044  0.138013
			-0.916805 -0.397976 -0.032936
			-0.930296 -0.281690 -0.234947
			-0.969438 -0.228598 -0.089063
			-0.883106 -0.344519 -0.318481
			-0.926830 -0.278731 -0.251584
			-0.969596 -0.169335 -0.176663
			-0.909100 -0.276126 -0.311916
			-0.977101  0.152169  0.148720
			 0.451761  0.892139  0.000476
			 0.206996  0.974023 -0.091825
			 0.226840  0.883092 -0.410722
			-0.213785  0.875114 -0.434132
			 0.396339  0.881193 -0.257711
			-0.495459  0.787627 -0.366283
			-0.638038  0.722163 -0.267184
			-0.644044  0.757559 -0.106355
			-0.775011  0.602438  0.190857
			-0.786349  0.614741 -0.061225
			-0.746360  0.650522  0.140599
			-0.728418  0.653567  0.205565
			 0.736882  0.675125  0.034791
			 0.776234  0.605839  0.174412
			 0.785069  0.607880  0.118948
			 0.845359  0.509457  0.160689
			 0.848008  0.489688  0.202700
			-0.984649 -0.174044  0.013267
			 0.831930  0.439803 -0.338328
			 0.744487  0.515643 -0.424089
			 0.851266  0.466766 -0.239742
			 0.746742  0.558150 -0.361723
			 0.820541  0.530727 -0.212227
			 0.797012  0.601535 -0.054112
			 0.822482  0.553327  0.131725
			 0.933067  0.308370 -0.185187
			 0.919317  0.340750 -0.196840
			 0.933246  0.313909 -0.174679
			 0.900209  0.392945 -0.187664
			 0.845396  0.449385 -0.288719
			 0.807969  0.498356 -0.314368
			 0.767922  0.531540 -0.357438
			 0.797532  0.596277 -0.091635
			 0.939428  0.335223 -0.071419
			 0.963100  0.243698 -0.114235
			 0.572539  0.815159 -0.087832
			 0.198981  0.977707 -0.067047
			-0.209875  0.977728  0.000359
			-0.424575  0.904548  0.039103
			-0.478074  0.874762  0.078971
			-0.660113  0.730593  0.174597
			-0.829215  0.541509  0.138454
			-0.857972  0.503459 -0.102045
			-0.875612  0.463976 -0.134272
			-0.931184  0.360969 -0.050970
			-0.976391  0.072783  0.203380
			-0.967470  0.172900  0.184680
			-0.468245  0.878130  0.098152
			-0.504356  0.855855  0.114621
			-0.511376  0.848892  0.133708
			 0.899289  0.417392  0.130627
			 0.899817  0.411607  0.144600
			 0.872396  0.459193  0.167534
			 0.870398  0.458456  0.179515
			-0.826837 -0.005446  0.562416
			-0.804382 -0.148070  0.575365
			-0.829409 -0.242770  0.503134
			-0.891731 -0.051691  0.449603
			-0.870022 -0.262847  0.417102
			-0.915265 -0.022970  0.402196
			-0.899399 -0.090617  0.427634
			-0.849996 -0.133882  0.509493
			-0.975372 -0.151723  0.160090
			-0.947251 -0.319466 -0.025628
			-0.956035  0.175527 -0.234921
			-0.817713 -0.493212 -0.296795
			-0.733925 -0.540390 -0.411501
			-0.844549 -0.420371 -0.331701
			-0.879658 -0.188617 -0.436608
			-0.859219  0.486152 -0.159372
			-0.843148  0.535999  0.042505
			 0.552722  0.830283 -0.071613
			-0.057829  0.939115 -0.338701
			 0.328410  0.883474 -0.334096
			 0.671542  0.737549 -0.071078
			 0.518637  0.819072 -0.245227
			 0.721094  0.681664 -0.123922
			-0.288835  0.918582 -0.269779
			-0.572000  0.750755 -0.330429
			-0.695462  0.654688 -0.296169
			-0.735331  0.646098 -0.204564
			-0.803361  0.570727  0.169946
			-0.818325  0.550927 -0.163780
			-0.802171  0.580333 -0.140481
			-0.795035  0.578538 -0.182247
			-0.781614  0.623621  0.013282
			-0.790330  0.591136  0.161048
			-0.781948  0.622702 -0.028278
			 0.810176  0.586185 -0.001098
			 0.818769  0.569968  0.068943
			 0.838063  0.525137  0.147927
			 0.860376  0.501778  0.089289
			 0.897718  0.414911  0.148162
			 0.850271  0.457761  0.259795
			 0.871218  0.412712  0.265798
			 0.898083  0.333785 -0.286416
			 0.920672  0.278294 -0.273706
			 0.879863  0.358098 -0.312422
			 0.851320  0.437592 -0.289425
			 0.873517  0.464737 -0.144871
			 0.871315  0.484313  0.079065
			 0.857231  0.436306  0.273482
			 0.898672  0.373923  0.229282
			 0.921645  0.264817 -0.283623
			 0.956969  0.209003 -0.201315
			 0.935277  0.246319 -0.254134
			 0.938628  0.251813 -0.235729
			 0.898205  0.340446 -0.278071
			 0.878399  0.367807 -0.305176
			 0.866485  0.388231 -0.313815
			 0.808535  0.581216 -0.091973
			 0.948932  0.303565 -0.085885
			 0.978554  0.184565 -0.091477
			 0.599992  0.787603 -0.140325
			 0.278143  0.955786 -0.095441
			-0.161418  0.984582  0.067405
			-0.378807  0.922032  0.079765
			-0.457968  0.880122  0.125106
			-0.492057  0.860498  0.132001
			-0.787523  0.564554  0.247157
			-0.687835  0.700823  0.189025
			-0.775666  0.549786  0.309963
			-0.861527  0.497397  0.101821
			-0.892550  0.441033 -0.094047
			-0.828302  0.560164 -0.011466
			-0.958124  0.283124  0.042880
			-0.965318  0.035591  0.258640
			-0.908771 -0.133535  0.395353
			-0.464261  0.875450  0.134349
			-0.500839  0.854170  0.139838
			-0.465836  0.875097  0.131158
			 0.938828  0.310879  0.148176
			 0.936651  0.321667  0.138621
			 0.916909  0.346670  0.197733
			-0.800571 -0.326304  0.502605
			-0.775668 -0.395102  0.492172
			-0.802004 -0.402596  0.441255
			-0.900899 -0.126897  0.415065
			-0.826524 -0.413029  0.382445
			-0.861137 -0.336760  0.380836
			-0.937413 -0.205219  0.281322
			-0.809460 -0.297698  0.506113
			-0.927504 -0.254769  0.273549
			-0.816210 -0.557103 -0.153094
			-0.815037  0.511281 -0.272592
			-0.772453  0.328919 -0.543257
			-0.738774 -0.474162 -0.478939
			-0.831476 -0.311715 -0.459872
			-0.845687 -0.382438 -0.372231
			-0.634388 -0.123001 -0.763166
			-0.741400 -0.304782 -0.597858
			-0.830283  0.552508 -0.073244
			-0.835388  0.531463  0.140265
			 0.217693  0.954923 -0.201821
			 0.861763  0.507103  0.014568
			 0.571608  0.810741 -0.126349
			 0.799401  0.594779 -0.084834
			 0.909680  0.414412 -0.027309
			-0.140139  0.978447 -0.151666
			-0.554664  0.812159 -0.180959
			-0.745554  0.625795 -0.229193
			-0.833095  0.527814  0.165422
			-0.804795  0.573705 -0.152206
			-0.799927  0.576352 -0.167137
			-0.793872  0.598025 -0.110149
			-0.808533  0.576302 -0.118953
			-0.830115  0.552956  0.071761
			-0.804179  0.569526 -0.170106
			-0.826311  0.556011 -0.089792
			 0.863480  0.493533  0.104056
			 0.870950  0.477992  0.113884
			 0.933405  0.343808  0.102715
			 0.945752  0.280749  0.163503
			 0.873827  0.395962  0.282207
			 0.867765  0.389085  0.309188
			 0.896636  0.317005  0.309115
			 0.947937  0.232095 -0.218056
			 0.959288  0.164250 -0.229757
			 0.932065  0.195802 -0.304823
			 0.897691  0.201993 -0.391599
			 0.894721  0.290072 -0.339606
			 0.950487  0.267376 -0.158384
			 0.957335  0.286811  0.035349
			 0.923733  0.321524  0.208183
			 0.901679  0.325036  0.285179
			 0.893514  0.384721  0.231564
			 0.914068  0.332964  0.231547
			 0.926865  0.228041 -0.298192
			 0.981927  0.120060 -0.146307
			 0.946036  0.152972 -0.285685
			 0.936105  0.197010 -0.291366
			 0.912017  0.235793 -0.335600
			 0.900100  0.301375 -0.314632
			 0.904834  0.312278 -0.289410
			 0.823687  0.523571 -0.217745
			 0.931488  0.272177 -0.241349
			 0.986406  0.135980 -0.092264
			 0.724141  0.638816 -0.259874
			 0.403208  0.902781 -0.149700
			-0.022332  0.999395 -0.026658
			-0.372833  0.917340  0.139584
			-0.275449  0.953757  0.120314
			-0.513422  0.847966  0.131723
			-0.789218  0.553844  0.265316
			-0.657156  0.736059  0.162368
			-0.770111  0.592415  0.236585
			-0.772983  0.572481  0.273428
			-0.750739  0.632949  0.189122
			-0.696785  0.671791  0.251372
			-0.700512  0.670711  0.243781
			-0.896050  0.376858  0.234674
			-0.945333  0.072022  0.318055
			-0.879252 -0.018941  0.475979
			-0.856994 -0.187046  0.480183
			-0.438566  0.883116  0.166631
			-0.497606  0.848442  0.180370
			-0.490002  0.854802  0.170914
			 0.963816  0.221428  0.148419
			 0.964318  0.220978  0.145804
			 0.925371  0.288825  0.245498
			-0.767915 -0.340426  0.542602
			-0.752410 -0.370606  0.544546
			-0.785667 -0.459341  0.414408
			-0.852891 -0.393499  0.343127
			-0.855407 -0.440539  0.272405
			-0.905709 -0.373362  0.200729
			-0.979495  0.039898  0.197479
			-0.958662 -0.280695  0.046666
			-0.787945 -0.246230  0.564370
			-0.996709 -0.052544  0.061727
			-0.929104 -0.177972 -0.324178
			-0.859368  0.453980 -0.235349
			-0.759910  0.223012 -0.610576
			-0.860156 -0.013515 -0.509852
			-0.973073  0.046414 -0.225777
			-0.896561 -0.328560 -0.297029
			-0.807352 -0.339953 -0.482301
			-0.760198 -0.211453 -0.614319
			-0.652847 -0.289986 -0.699785
			-0.603050 -0.282810 -0.745888
			-0.901127  0.433553  0.001250
			-0.886910  0.438319  0.145834
			-0.857980  0.486924  0.163630
			 0.306890  0.943242 -0.126937
			 0.923127  0.376812  0.076481
			 0.607245  0.788883 -0.094431
			 0.815935  0.576014 -0.049569
			 0.937876  0.345835 -0.028043
			 0.963809  0.263719  0.039041
			 0.011216  0.954996 -0.296407
			-0.544762  0.826769 -0.140313
			-0.846345  0.531821  0.029444
			-0.790761  0.601988 -0.110935
			-0.784681  0.596139 -0.169981
			-0.794113  0.593854 -0.129317
			-0.813459  0.573587 -0.096345
			-0.803499  0.559765 -0.202616
			-0.822074  0.537131 -0.188903
			-0.832602  0.528377 -0.166107
			 0.868524  0.466751  0.166764
			 0.877280  0.452835  0.159124
			 0.923009  0.358931  0.138647
			 0.967756  0.201512  0.151135
			 0.956608  0.159443  0.243883
			 0.896396  0.313533  0.313322
			 0.891911  0.249380  0.377233
			 0.907646  0.137928  0.396428
			 0.960769  0.186449 -0.205327
			 0.981548  0.127151 -0.142814
			 0.966869  0.139128 -0.214028
			 0.942017  0.154699 -0.297779
			 0.921399  0.141307 -0.362016
			 0.950539  0.132283 -0.281030
			 0.989632  0.108934 -0.093602
			 0.985756  0.165801  0.028195
			 0.952136  0.252604  0.172128
			 0.912677  0.350183  0.210696
			 0.909065  0.354491  0.218947
			 0.900445  0.284324  0.329178
			 0.953597  0.178668  0.242344
			 0.927842  0.171426 -0.331245
			 0.991880  0.071822 -0.104953
			 0.978582  0.089565 -0.185353
			 0.925590  0.105302 -0.363586
			 0.954169  0.053724 -0.294405
			 0.928507  0.117787 -0.352137
			 0.934376  0.155222 -0.320698
			 0.904078  0.141698 -0.403193
			 0.916299  0.223830 -0.332108
			 0.921143  0.113579 -0.372285
			 0.833664  0.402344 -0.378317
			 0.968292  0.122622 -0.217655
			 0.887093  0.276498 -0.369615
			 0.778597  0.550275 -0.301635
			 0.868142  0.362364 -0.339148
			 0.580561  0.741669 -0.335970
			 0.242726  0.956959 -0.159104
			-0.036745  0.997840  0.054459
			-0.458865  0.849317  0.260966
			-0.310330  0.925929  0.215291
			-0.542695  0.823337  0.166130
			-0.639926  0.747527  0.178042
			-0.709222  0.657693  0.253856
			-0.758955  0.588773  0.278090
			-0.702285  0.663125  0.258963
			-0.572600  0.784253  0.238908
			-0.579965  0.757079  0.300787
			-0.699703  0.495696  0.514491
			-0.819379  0.181552  0.543744
			-0.886070  0.066682  0.458730
			-0.857018  0.031346  0.514332
			-0.871850 -0.067288  0.485128
			-0.790155 -0.050974  0.610784
			-0.540742  0.792496  0.282041
			 0.981736  0.133476  0.135565
			 0.965215  0.159477  0.207188
			 0.934016  0.190845  0.301980
			-0.725695 -0.124340  0.676688
			-0.672715 -0.149775  0.724584
			-0.727660 -0.210870  0.652720
			-0.769107 -0.353215  0.532648
			-0.795924 -0.466112  0.386322
			-0.877202 -0.411830  0.246805
			-0.925927 -0.370242  0.074704
			-0.923251 -0.371627  0.097477
			-0.928730 -0.336376 -0.155925
			-0.923913 -0.375631 -0.072710
			-0.936674  0.031372 -0.348795
			-0.974371  0.141422 -0.174933
			-0.877187 -0.415190 -0.241164
			-0.728082 -0.393765 -0.561110
			-0.778628 -0.228005 -0.584596
			-0.902296 -0.147382 -0.405143
			-0.612239 -0.307903 -0.728258
			-0.545922 -0.320965 -0.773919
			-0.663758 -0.186802 -0.724244
			-0.961157  0.274441  0.029294
			-0.912263  0.377706  0.158475
			-0.894227  0.440793  0.077850
			-0.868932  0.494815 -0.010749
			 0.408944  0.905035 -0.116945
			 0.923172  0.328736  0.199214
			 0.640210  0.766246 -0.054759
			 0.819569  0.572893 -0.009968
			 0.945366  0.325745 -0.013147
			 0.983192  0.182304  0.009912
			 0.985137  0.152003  0.079997
			 0.364466  0.857493 -0.363140
			-0.275039  0.843805 -0.460810
			 0.540747  0.828326 -0.146520
			-0.620892  0.725685 -0.296437
			-0.778331  0.616503 -0.118850
			-0.746243  0.650435 -0.141618
			-0.775806  0.600487 -0.193753
			-0.811924  0.542579 -0.215376
			-0.820663  0.550319 -0.153820
			-0.807347  0.547693 -0.219599
			-0.792112  0.553857 -0.256518
			-0.823000  0.537317 -0.184285
			-0.794482  0.549985 -0.257517
			 0.898489  0.408452  0.160884
			 0.917438  0.339453  0.207556
			 0.959939  0.218392  0.175564
			 0.963490  0.053553  0.262335
			 0.934949  0.029521  0.353553
			 0.908528  0.113270  0.402178
			 0.871928  0.029624  0.488738
			 0.892322 -0.044324  0.449218
			 0.954160  0.097537 -0.282957
			 0.986366  0.084454 -0.141246
			 0.983291  0.109024 -0.145781
			 0.970257  0.127960 -0.205495
			 0.937876  0.150572 -0.312597
			 0.932370  0.163115 -0.322615
			 0.962661  0.100910 -0.251198
			 0.991995  0.055908 -0.113224
			 0.997280  0.072369 -0.013981
			 0.987189  0.140027  0.076482
			 0.960109  0.219224  0.173585
			 0.940073  0.200098  0.276088
			 0.930977  0.129190  0.341456
			 0.968178  0.071776  0.239750
			 0.987464  0.069258  0.141837
			 0.983912  0.007172 -0.178512
			 0.984427  0.012315 -0.175364
			 0.914370  0.042543 -0.402639
			 0.953229 -0.086838 -0.289506
			 0.910515 -0.053211 -0.410037
			 0.913923  0.044594 -0.403430
			 0.909761  0.040190 -0.413182
			 0.920063 -0.013227 -0.391547
			 0.916794  0.136522 -0.375300
			 0.933581 -0.048117 -0.355122
			 0.894895  0.183212 -0.406934
			 0.758605  0.531691 -0.376594
			 0.888393  0.309050 -0.339478
			 0.674919  0.672788 -0.303051
			 0.404926  0.908659 -0.101849
			 0.025403  0.999454  0.021129
			-0.503060  0.798855  0.329789
			-0.160601  0.982959  0.089437
			-0.529201  0.804144  0.270737
			-0.429404  0.881029  0.198497
			-0.587900  0.768717  0.251888
			-0.596444  0.772609  0.217555
			-0.620217  0.748266  0.235434
			-0.619996  0.705464  0.343403
			-0.661512  0.662870  0.350721
			-0.680359  0.665836  0.306226
			-0.549333  0.788487  0.276626
			-0.438007  0.854444  0.279420
			-0.462339  0.720609  0.516686
			-0.432493  0.494893  0.753678
			-0.662780  0.258248  0.702873
			-0.778697  0.160310  0.606573
			-0.709615  0.121944  0.693958
			-0.809368 -0.094958  0.579574
			-0.787085 -0.205000  0.581784
			-0.773474 -0.018945  0.633544
			-0.796060 -0.190804  0.574354
			-0.605429  0.732270  0.311827
			 0.976424  0.075958  0.202055
			 0.943810  0.091338  0.317615
			-0.702956 -0.025453  0.710778
			-0.617190 -0.027780  0.786324
			-0.665046 -0.098442  0.740286
			-0.635347 -0.164979  0.754398
			-0.748993 -0.086581  0.656897
			-0.779220 -0.171582  0.602807
			-0.817455 -0.362234  0.447832
			-0.848949 -0.187473  0.494104
			-0.882052 -0.314282  0.351015
			-0.896978 -0.442018  0.007134
			-0.953084 -0.301892 -0.022184
			-0.949067 -0.306927 -0.071192
			-0.903318 -0.390001 -0.178647
			-0.943522 -0.297329 -0.146158
			-0.942767  0.032261 -0.331887
			-0.985500  0.109619 -0.129512
			-0.928458 -0.324698 -0.180380
			-0.912732 -0.350604 -0.209756
			-0.810742 -0.242128 -0.532984
			-0.694964 -0.155497 -0.702030
			-0.663759  0.013777 -0.747819
			-0.838191 -0.042037 -0.543755
			-0.549922 -0.241099 -0.799661
			-0.525017 -0.236083 -0.817693
			-0.819397 -0.063590 -0.569688
			-0.706567 -0.134672 -0.694713
			-0.948184  0.317632 -0.007529
			-0.850272  0.523573 -0.053933
			-0.806043  0.580752 -0.114112
			 0.925382  0.198352  0.322992
			 0.974497  0.083325  0.208358
			 0.666091  0.745429  0.025657
			 0.805697  0.588165  0.070099
			 0.940937  0.336814  0.034544
			 0.986323  0.163581  0.020214
			 0.994637  0.094416  0.042222
			 0.995177  0.043621  0.087863
			 0.046468  0.962649 -0.266736
			 0.545660  0.836598 -0.048562
			-0.509046  0.812384 -0.284437
			 0.651195  0.757302  0.049387
			-0.740671  0.602742 -0.296830
			-0.799795  0.576479 -0.167334
			-0.715612  0.682947 -0.146570
			-0.703918  0.679201 -0.207811
			-0.764144  0.591982 -0.256206
			-0.826334  0.501741 -0.255788
			-0.832551  0.500473 -0.237456
			-0.790866  0.550802 -0.266737
			-0.798097  0.541658 -0.263908
			-0.766750  0.599749 -0.228898
			-0.766576  0.585665 -0.263358
			 0.956328  0.084251  0.279890
			 0.948620 -0.012529  0.316170
			 0.942978 -0.015725  0.332483
			 0.929895 -0.058346  0.363167
			 0.890461  0.018951  0.454666
			 0.835471 -0.090694  0.541999
			 0.923119 -0.088145  0.374275
			 0.888778 -0.091580  0.449095
			 0.950640 -0.023906 -0.309373
			 0.987184  0.020818 -0.158223
			 0.984587  0.045551 -0.168857
			 0.960311  0.090632 -0.263796
			 0.932421  0.092176 -0.349422
			 0.936232  0.143134 -0.320909
			 0.975274  0.106291 -0.193762
			 0.994486  0.053405 -0.090251
			 0.998522  0.041269 -0.035367
			 0.997524  0.060286  0.036227
			 0.982441  0.092281  0.162156
			 0.955877  0.097384  0.277155
			 0.944156  0.046509  0.326200
			 0.973293 -0.011024  0.229304
			 0.989289  0.002116  0.145953
			 0.976368  0.002009  0.216106