<?xml version="1.0"?>
<VTKFile type="PolyData" version="0.1" byte_order="LittleEndian" compressor="vtkZLibDataCompressor">
	<PolyData>
		<Piece NumberOfPoints="10524" NumberOfVerts="0" NumberOfLines="0" NumberOfStrips="0" NumberOfPolys="21056">
		<PointData Normals="Normals">
		<DataArray type="Float32" Name="Normals" NumberOfComponents="3" format="ascii">
			 0.493001  0.867730  0.063207
			 0.711088  0.702568 -0.027416
			 0.539427  0.810688 -0.227603
			 0.687816  0.683946  0.243159
			 0.287995  0.946625 -0.144773
			 0.142818  0.989086  0.036219
			 0.586178  0.723937  0.363746
			 0.259956  0.924733  0.278015
			 0.637398  0.709747 -0.299970
			 0.737493  0.627485 -0.249734
			 0.791811  0.610657 -0.011560
			 0.714413  0.628686  0.307193
			 0.587610  0.733532 -0.341534
			 0.674358  0.611388  0.414060
			 0.323079  0.882325 -0.342232
			 0.023761  0.995176 -0.095188
			-0.036922  0.999068  0.022373
			-0.064031  0.976202  0.207196
			 0.574112  0.657138  0.488431
			 0.630201  0.541276  0.556657
			 0.103834  0.860217  0.499244
			-0.231733  0.868412  0.438361
			 0.667627  0.599422 -0.441551
			 0.773894  0.570542 -0.274899
			 0.796916  0.603882  0.015880
			 0.666728  0.531506  0.522470
			 0.739324  0.615222  0.273683
			 0.605189  0.564646  0.561178
			 0.685014  0.561205  0.464548
			 0.513679  0.590073 -0.622854
			 0.601871  0.530264 -0.597136
			 0.179995  0.622735 -0.761448
			-0.002210  0.877644 -0.479307
			-0.214907  0.961176 -0.173078
			-0.220206  0.973622  0.059739
			-0.288971  0.908149  0.302921
			 0.310260  0.655332  0.688679
			 0.570654  0.386537  0.724529
			 0.572619  0.465916  0.674559
			-0.334398  0.677923  0.654674
			-0.451763  0.712796  0.536499
			-0.413455  0.645996  0.641673
			 0.577644  0.619211 -0.531889
			 0.797996  0.530487 -0.285983
			 0.697588  0.601973 -0.388586
			 0.830348  0.547878 -0.101741
			 0.775907  0.597142  0.203445
			 0.490880  0.530648  0.690977
			 0.602823  0.539509  0.587821
			 0.725700  0.467685  0.504609
			 0.277596  0.504525 -0.817554
			-0.021342  0.519416 -0.854255
			-0.268950  0.726126 -0.632777
			-0.544316  0.745167 -0.385287
			-0.531648  0.846074 -0.038847
			-0.534055  0.810306  0.241225
			-0.530410  0.710021  0.463180
			 0.178036  0.504190  0.845042
			 0.341318  0.224316  0.912789
			 0.430906  0.397913  0.809929
			 0.485897  0.288248  0.825116
			-0.351881  0.477960  0.804819
			-0.431942  0.497506  0.752273
			-0.437394  0.342584  0.831458
			-0.499045  0.566181  0.656044
			-0.603606  0.569408  0.558062
			 0.628582  0.606618 -0.486724
			 0.542682  0.618262 -0.568550
			 0.341928  0.664861 -0.664113
			 0.680457  0.554851 -0.478663
			 0.754219  0.520449 -0.400359
			 0.817495  0.500253 -0.285394
			 0.819203  0.553728 -0.149303
			 0.799374  0.584116 -0.140748
			 0.799401  0.551779  0.237694
			 0.782105  0.366629  0.503880
			 0.569987  0.526569  0.630745
			 0.383664  0.563891  0.731320
			 0.798815  0.333795  0.500476
			 0.714152  0.425066  0.556153
			-0.114977  0.502966 -0.856625
			 0.022681  0.625587 -0.779824
			-0.307398  0.448459 -0.839280
			-0.513027  0.498337 -0.698901
			-0.667248  0.513573 -0.539466
			-0.734231  0.637286 -0.234033
			-0.717765  0.690409  0.090267
			-0.679099  0.631390  0.374395
			-0.122715  0.207500  0.970507
			 0.344459  0.213282  0.914253
			-0.023269  0.241409  0.970144
			 0.254907  0.498248  0.828717
			 0.258179  0.346020  0.902006
			-0.508720  0.527978  0.680032
			-0.369679  0.443781  0.816330
			-0.467245  0.509930  0.722256
			-0.229032  0.346278  0.909745
			-0.698891  0.599893  0.389461
			-0.558782  0.522519  0.644000
			-0.686676  0.555570  0.468847
			-0.588943  0.536235  0.604647
			 0.413968  0.604542 -0.680558
			 0.497993  0.626434 -0.599653
			 0.196764  0.643167 -0.740014
			 0.649671  0.587994 -0.481862
			 0.640726  0.556951 -0.528466
			 0.716785  0.549800 -0.428882
			 0.803346  0.491020 -0.336950
			 0.841765  0.458258 -0.285362
			 0.872149  0.455117 -0.179513
			 0.881236  0.455588 -0.125949
			 0.934982  0.338788  0.105031
			 0.925588  0.224270  0.304942
			 0.867844  0.265028  0.420245
			 0.480201  0.564693  0.671215
			 0.191930  0.600683  0.776107
			 0.833109  0.282279  0.475655
			 0.801826  0.285818  0.524769
			 0.669444  0.407678  0.621002
			-0.345474  0.504363 -0.791369
			-0.157430  0.611203 -0.775659
			-0.247942  0.591061 -0.767575
			-0.078382  0.658974 -0.748070
			-0.512222  0.471845 -0.717629
			-0.626652  0.550123 -0.551971
			-0.716402  0.613234 -0.332734
			-0.779641  0.622803 -0.065398
			-0.769785  0.593275  0.235491
			 0.083125  0.434670  0.896745
			-0.055352  0.327708  0.943156
			-0.165579  0.335783  0.927272
			-0.272098  0.419591  0.865971
			-0.363121  0.438736  0.821982
			-0.559999  0.525373  0.640613
			-0.429909  0.444365  0.785951
			-0.775118  0.548589  0.313437
			-0.779598  0.561386  0.277619
			-0.618086  0.547919  0.563697
			-0.746753  0.550103  0.373827
			-0.663991  0.547653  0.509109
			 0.584090  0.605812 -0.540213
			 0.498740  0.621403 -0.604249
			 0.264479  0.681021 -0.682833
			-0.016430  0.665514 -0.746204
			 0.607773  0.610954 -0.507295
			 0.449073  0.633941 -0.629645
			 0.616125  0.587508 -0.524618
			 0.705043  0.563893 -0.430045
			 0.781646  0.522399 -0.340776
			 0.826780  0.477399 -0.297531
			 0.846138  0.449677 -0.286078
			 0.911462  0.381189 -0.154700
			 0.955763  0.293277  0.022469
			 0.912273  0.292254  0.286960
			 0.863459  0.290208  0.412574
			 0.468590  0.457970  0.755439
			 0.164686  0.536642  0.827583
			-0.040343  0.486165  0.872935
			 0.831862  0.280085  0.479123
			 0.798406  0.252538  0.546601
			 0.716639  0.252173  0.650260
			 0.718792  0.134269  0.682136
			 0.497324  0.301358  0.813543
			-0.486988  0.596907 -0.637608
			-0.359823  0.597177 -0.716873
			-0.189690  0.671862 -0.715974
			-0.317886  0.649795 -0.690446
			-0.661779  0.627855 -0.409691
			-0.795429  0.554358 -0.244909
			-0.841696  0.535712  0.067529
			-0.113238  0.405450  0.907077
			-0.262362  0.348001  0.900034
			-0.203044  0.372129  0.905700
			-0.462271  0.450798  0.763601
			-0.587555  0.567518  0.576804
			-0.493230  0.466857  0.734009
			-0.340976  0.380459  0.859643
			-0.812517  0.579300  0.065018
			-0.810019  0.549354  0.205134
			-0.758274  0.579268  0.299114
			-0.704471  0.568739  0.424567
			 0.346451  0.601946 -0.719467
			 0.101161  0.612101 -0.784282
			-0.076018  0.578487 -0.812142
			-0.204499  0.654366 -0.728001
			 0.550266  0.630266 -0.547697
			 0.464065  0.630176 -0.622513
			 0.184685  0.641959 -0.744164
			 0.640134  0.552319 -0.534016
			 0.488715  0.545794 -0.680637
			 0.745846  0.524277 -0.410912
			 0.808557  0.512382 -0.289310
			 0.859579  0.462802 -0.216652
			 0.913042  0.392986 -0.109165
			 0.907713  0.417045  0.046155
			 0.820534  0.459676  0.339737
			 0.832939  0.338041  0.438110
			 0.244210  0.331114  0.911441
			-0.019747  0.318396  0.947752
			-0.110657  0.376494  0.919786
			 0.774001  0.315848  0.548782
			 0.679426  0.298652  0.670214
			 0.542264  0.118986  0.831741
			 0.471987  0.084379  0.877558
			 0.608760  0.188597  0.770611
			 0.246122  0.152303  0.957198
			-0.512152  0.656849 -0.553399
			-0.499427  0.638628 -0.585430
			-0.342498  0.638845 -0.688892
			-0.391004  0.622238 -0.678186
			-0.315887  0.637879 -0.702371
			-0.349240  0.669204 -0.655895
			-0.658942  0.674385 -0.333166
			-0.780761  0.605220 -0.155310
			-0.159689  0.352631  0.922036
			-0.256963  0.355226  0.898768
			-0.210684  0.344038  0.915014
			-0.251121  0.376516  0.891725
			-0.640399  0.655974  0.399483
			-0.486634  0.501157  0.715562
			-0.524240  0.651239  0.548689
			-0.456016  0.510885  0.728728
			-0.405154  0.411873  0.816218
			-0.335939  0.399566  0.852931
			-0.806106  0.591767  0.002191
			-0.781205  0.606616  0.147429
			-0.673732  0.694307  0.253029
			-0.031109  0.570469 -0.820730
			-0.108472  0.538089 -0.835880
			-0.211322  0.558327 -0.802256
			 0.298831  0.517902 -0.801547
			 0.049291  0.439982 -0.896653
			 0.491443  0.446809 -0.747560
			 0.637803  0.442461 -0.630426
			 0.280392  0.385256 -0.879181
			 0.766506  0.468513 -0.439276
			 0.701752  0.447520 -0.554320
			 0.796161  0.527698 -0.296077
			 0.826716  0.536693 -0.168824
			 0.866418  0.490363 -0.094148
			 0.875823  0.480600 -0.044255
			 0.858843  0.493517  0.137219
			 0.865955  0.425729  0.262445
			 0.807986  0.447120  0.383721
			 0.723282  0.460093  0.514954
			 0.035508  0.149576  0.988112
			-0.086814  0.223688  0.970787
			 0.687073  0.419597  0.593186
			 0.587608  0.261266  0.765805
			 0.658362  0.412051  0.629899
			 0.538807  0.267416  0.798859
			 0.592552  0.337178  0.731569
			 0.199915  0.072825  0.977103
			 0.504950  0.189491  0.842092
			 0.289742  0.135722  0.947433
			-0.669392  0.629707 -0.394188
			-0.569371  0.579617 -0.582975
			-0.355777  0.669529 -0.652038
			-0.510147  0.625658 -0.590172
			-0.309731  0.641750 -0.701587
			-0.761527  0.623223 -0.177959
			-0.132749  0.268062  0.954212
			-0.191537  0.329172  0.924640
			-0.229920  0.350984  0.907715
			-0.582085  0.731821  0.354422
			-0.596721  0.625121  0.503138
			-0.476042  0.469961  0.743317
			-0.422566  0.298246  0.855855
			-0.455015  0.326034  0.828652
			-0.327086  0.360505  0.873528
			-0.768408  0.636317 -0.068196
			-0.733534  0.676908  0.061014
			-0.696170  0.700570  0.156682
			-0.637045  0.753024  0.164708
			-0.089414  0.474695 -0.875597
			-0.184075  0.483509 -0.855766
			-0.151786  0.445809 -0.882165
			-0.260340  0.544031 -0.797655
			 0.098543  0.381253 -0.919204
			-0.058950  0.406012 -0.911965
			 0.444253  0.372628 -0.814731
			 0.609150  0.398207 -0.685833
			 0.254857  0.453059 -0.854275
			 0.784850  0.450223 -0.425804
			 0.716616  0.408602 -0.565248
			 0.820814  0.447532 -0.354935
			 0.851973  0.480066 -0.208994
			 0.873633  0.476932 -0.096448
			 0.879340  0.473938 -0.046303
			 0.912885  0.401596  0.073216
			 0.910242  0.335480  0.242719
			 0.827762  0.425687  0.365513
			 0.791881  0.421567  0.441821
			 0.638534  0.452505  0.622506
			 0.753848  0.393883  0.525899
			 0.056126  0.130132  0.989907
			-0.022548  0.238829  0.970800
			 0.468142  0.206734  0.859130
			 0.384876  0.180073  0.905231
			 0.469657  0.267477  0.841355
			 0.688847  0.341265  0.639553
			 0.718443  0.226118  0.657807
			 0.596269  0.266990  0.757086
			 0.189890  0.266004  0.945084
			 0.265147  0.062360  0.962189
			-0.690097  0.611182 -0.387586
			-0.348377  0.634546 -0.689916
			-0.436011  0.594510 -0.675612
			-0.591051  0.558237 -0.582263
			-0.610075  0.568763 -0.551649
			-0.089869  0.274659  0.957333
			-0.158639  0.276771  0.947751
			-0.248478  0.225218  0.942091
			-0.675339  0.669975  0.308303
			-0.796709  0.381695  0.468576
			-0.683877  0.303598  0.663430
			-0.556766  0.121923  0.821673
			-0.539444  0.080076  0.838205
			-0.368845  0.230372  0.900490
			-0.501670  0.132742  0.854814
			-0.709475  0.690317 -0.141799
			-0.728958  0.684057 -0.026192
			-0.697978  0.710438  0.090026
			-0.724002  0.689792 -0.002733
			-0.713267  0.689674  0.124904
			-0.178536  0.449129 -0.875448
			-0.228037  0.466908 -0.854398
			-0.150927  0.424857 -0.892591
			-0.340714  0.512704 -0.788066
			 0.050451  0.457753 -0.887647
			-0.102233  0.437841 -0.893221
			 0.499693  0.477833 -0.722484
			 0.618986  0.405222 -0.672794
			 0.295519  0.504622 -0.811188
			 0.115204  0.449406 -0.885868
			 0.807320  0.374210 -0.456290
			 0.682740  0.447708 -0.577428
			 0.919742  0.303115 -0.249392
			 0.929233  0.349797 -0.119029
			 0.907346  0.420035 -0.017161
			 0.952711  0.272137  0.135215
			 0.959820  0.210927  0.185080
			 0.898339  0.292399  0.327856
			 0.846323  0.235110  0.477976
			-0.022258  0.356298  0.934107
			 0.287492  0.141529  0.947269
			 0.441900  0.227030  0.867860
			 0.871980  0.147049  0.466933
			 0.743563  0.142561  0.653292
			 0.569711  0.151889  0.807688
			 0.295173  0.070988  0.952803
			 0.080767  0.231676  0.969434
			 0.157039  0.032897  0.987044
			 0.225082 -0.183761  0.956854
			 0.149468 -0.040888  0.987921
			-0.649522  0.638716 -0.412509
			-0.519065  0.502973 -0.691078
			-0.610540  0.542597 -0.576914
			-0.599376  0.593279 -0.537373
			-0.563503  0.590199 -0.578039
			-0.186172  0.268323  0.945168
			-0.194393  0.179138  0.964428
			-0.271358  0.110982  0.956059
			-0.378837  0.066503  0.923071
			-0.817162  0.499480  0.287691
			-0.855932  0.109662  0.505326
			-0.777422  0.019157  0.628687
			-0.645953 -0.020731  0.763095
			-0.488166  0.016107  0.872602
			-0.650378 -0.004361  0.759598
			-0.515426  0.092445  0.851933
			-0.592016  0.074817  0.802446
			-0.708120  0.659284 -0.252805
			-0.787324  0.600550 -0.139504
			-0.781706  0.591199 -0.198543
			-0.782792  0.622072  0.016202
			-0.186225  0.437007 -0.879969
			-0.300914  0.474188 -0.827404
			-0.234140  0.438530 -0.867681
			-0.183784  0.334882 -0.924163
			-0.180571  0.390562 -0.902693
			-0.479482  0.518867 -0.707724
			-0.026720  0.388209 -0.921184
			-0.196019  0.264469 -0.944263
			 0.391997  0.433524 -0.811416
			 0.514735  0.491379 -0.702563
			 0.190077  0.317872 -0.928885
			 0.042844  0.247222 -0.968011
			 0.920944  0.205261 -0.331256
			 0.822879  0.311032 -0.475530
			 0.820825  0.241383 -0.517668
			 0.682965  0.439711 -0.583278
			 0.974793  0.137942 -0.175360
			 0.960027  0.181595 -0.213007
			 0.864660  0.355980 -0.354459
			 0.904128  0.361520  0.227718
			 0.964194  0.148927  0.219433
			 0.981552  0.128224  0.141824
			 0.944798  0.170456  0.279825
			-0.122337  0.213237  0.969311
			 0.366625  0.085983  0.926387
			 0.188447  0.042271  0.981173
			 0.955626  0.122074  0.268098
			 0.884908  0.097457  0.455455
			 0.740162  0.024762  0.671973
			 0.562977  0.027811  0.826004
			 0.129760 -0.138198  0.981867
			-0.057441 -0.116142  0.991570
			 0.119916  0.005372  0.992770
			 0.059759 -0.209457  0.975990
			 0.124405  0.060591  0.990380
			 0.144564 -0.059950  0.987678
			-0.616294  0.497333 -0.610608
			-0.576506  0.592927 -0.562208
			-0.557152  0.583655 -0.590702
			-0.736988  0.578469 -0.349603
			-0.712666  0.476083 -0.515220
			-0.287272  0.071764  0.955157
			-0.243616  0.088777  0.965800
			-0.350455  0.134197  0.926916
			-0.441271  0.061998  0.895230
			-0.903315  0.404010  0.144215
			-0.898790  0.205872  0.387032
			-0.908681 -0.159040  0.386012
			-0.869836 -0.104719  0.482098
			-0.761745 -0.053233  0.645687
			-0.781974  0.005950  0.623283
			-0.681100  0.091295  0.726477
			-0.445049  0.145635  0.883585
			-0.508314  0.142670  0.849272
			-0.596452  0.129193  0.792183
			-0.831468  0.438398 -0.341274
			-0.820857  0.504053 -0.268559
			-0.742871  0.395167 -0.540357
			-0.882652  0.465934 -0.061893
			-0.246402  0.475040 -0.844762
			-0.370284  0.506153 -0.778909
			-0.189226  0.450413 -0.872538
			-0.184809  0.168765 -0.968176
			-0.071417  0.362381 -0.929290
			-0.625429  0.413855 -0.661485
			-0.103386  0.172980 -0.979484
			-0.276939  0.098983 -0.955776
			 0.306956  0.230304 -0.923438
			 0.496389  0.291562 -0.817673
			 0.128649  0.123622 -0.983955
			 0.002566  0.077699 -0.996974
			 0.941583  0.110525 -0.318129
			 0.878170  0.149104 -0.454517
			 0.974862  0.124181 -0.184997
			 0.697661  0.145009 -0.701599
			 0.715749 -0.040536 -0.697180
			 0.842831  0.056629 -0.535190
			 0.982520  0.129155 -0.134066
			 0.941883 -0.116111 -0.315238
			 0.991088  0.130676 -0.025859
			 0.992925  0.034439 -0.113636
			 0.967505 -0.150263  0.203361
			 0.979469  0.157725  0.125552
			 0.966695  0.178093  0.183803
			-0.184654 -0.113678  0.976207
			 0.342816 -0.016896  0.939251
			 0.165824 -0.017887  0.985993
			 0.938834  0.134805  0.316888
			 0.863218  0.061839  0.501029
			 0.679772  0.022925  0.733065
			 0.519067 -0.052621  0.853112
			-0.071789 -0.149554  0.986144
			 0.087310 -0.033325  0.995624
			-0.065083  0.142994  0.987581
			 0.211940 -0.034213  0.976684
			 0.067145  0.118812  0.990644
			 0.054090 -0.061371  0.996648
			 0.148002 -0.251184  0.956557
			 0.057802 -0.139968  0.988467
			-0.773385  0.222641 -0.593555
			-0.695915  0.408168 -0.590848
			-0.804433  0.290603 -0.518109
			-0.227976 -0.102848  0.968220
			-0.183266  0.258888  0.948362
			-0.406661  0.246626  0.879660
			-0.458352  0.149459  0.876114
			-0.996972  0.059495  0.050079
			-0.969909  0.005802  0.243397
			-0.950696 -0.255357  0.175983
			-0.931527 -0.239624  0.273565
			-0.965460 -0.068201  0.251468
			-0.889914  0.011555  0.455983
			-0.798530  0.105887  0.592569
			-0.683026  0.120494  0.720387
			-0.505082  0.148538  0.850193
			-0.613278  0.122741  0.780272
			-0.709868  0.008304  0.704286
			-0.899650  0.248047 -0.359309
			-0.990465  0.074666 -0.115771
			-0.808864  0.169453 -0.563050
			-0.829200 -0.082423 -0.552842
			-0.793676  0.085297 -0.602331
			-0.276831  0.476471 -0.834470
			-0.544536  0.402867 -0.735649
			-0.145373  0.469896 -0.870669
			-0.379955  0.388929 -0.839266
			-0.182236  0.165485 -0.969229
			-0.002880  0.319621 -0.947541
			 0.052305  0.389793 -0.919416
			-0.023511  0.386949 -0.921801
			-0.819076  0.188932 -0.541682
			-0.096984  0.152427 -0.983545
			-0.152756  0.250008 -0.956118
			 0.416946 -0.022410 -0.908655
			 0.237728 -0.000209 -0.971332
			 0.121515 -0.044879 -0.991575
			 0.052114  0.019862 -0.998444
			 0.929897  0.099994 -0.353966
			 0.867708  0.063163 -0.493046
			 0.962923  0.138584 -0.231459
			 0.960067  0.202083 -0.193481
			 0.466879 -0.147571 -0.871921
			 0.570014 -0.150731 -0.807691
			 0.746576 -0.007700 -0.665256
			 0.942630  0.276075 -0.187699
			 0.942051  0.329501  0.063003
			 0.921203  0.313898  0.229898
			 0.906267  0.278962  0.317584
			 0.344121 -0.022073  0.938666
			 0.153246 -0.021229  0.987960
			 0.892431  0.158537  0.422412
			 0.820673  0.104721  0.561720
			 0.717526  0.119487  0.686206
			 0.502369  0.020271  0.864416
			 0.564008  0.138216  0.814120
			 0.072137 -0.027888  0.997005
			-0.062425  0.157943  0.985473
			 0.092111 -0.200161  0.975424
			-0.022055 -0.164951  0.986055
			 0.033415 -0.035736  0.998802
			 0.030398 -0.302800  0.952569
			 0.001165 -0.179578  0.983743
			 0.003014 -0.052793  0.998601
			-0.801005  0.186608 -0.568831
			-0.836856  0.081318 -0.541350
			-0.801037  0.073189 -0.594124
			-0.203276  0.186970  0.961104
			-0.429032  0.058132  0.901417
			-0.466556 -0.027851  0.884053
			-0.964881 -0.261777  0.021866
			-0.959957 -0.261221  0.101224
			-0.999940  0.010954  0.000257
			-0.953810  0.161668  0.253199
			-0.901029  0.086005  0.425147
			-0.794668  0.066732  0.603366
			-0.516397  0.036686  0.855563
			-0.657926 -0.114018  0.744401
			-0.813907  0.023584  0.580516
			-0.696212 -0.279248  0.661293
			-0.754218 -0.098341  0.649218
			-0.916353 -0.222138 -0.333094
			-0.938802 -0.308558 -0.153107
			-0.801568  0.056917 -0.595188
			-0.852937 -0.084423 -0.515142
			-0.930493 -0.140638 -0.338235
			-0.890667 -0.352933 -0.286618
			-0.705246  0.235759 -0.668615
			-0.219060  0.359036 -0.907252
			-0.462340  0.299300 -0.834662
			-0.705160  0.229541 -0.670866
			 0.050075  0.341914 -0.938396
			-0.027724  0.319204 -0.947280
			 0.037941  0.305629 -0.951395
			-0.068820  0.235491 -0.969437
			-0.875638  0.091774 -0.474169
			-0.864673  0.026975 -0.501611
			 0.013737  0.069881 -0.997461
			 0.014429  0.171712 -0.985042
			 0.248805 -0.157649 -0.955637
			 0.223541 -0.097283 -0.969828
			 0.104051 -0.000890 -0.994572
			 0.896190  0.187245 -0.402222
			 0.837469  0.113647 -0.534537
			 0.937139  0.183980 -0.296517
			 0.926804  0.246284 -0.283511
			 0.936466  0.263942 -0.231012
			 0.337884 -0.189118 -0.921992
			 0.564310  0.036280 -0.824765
			 0.382486  0.054538 -0.922350
			 0.691723  0.148819 -0.706663
			 0.960791  0.271664 -0.055492
			 0.925275  0.322935  0.198943
			 0.898175  0.337389  0.281869
			 0.910569  0.286053  0.298393
			 0.894732  0.233235  0.380862
			 0.431732  0.078371  0.898591
			 0.222707  0.062008  0.972911
			 0.906583  0.145791  0.396045
			 0.867831  0.149785  0.473744
			 0.795164  0.166761  0.583014
			 0.693880  0.243257  0.677758
			 0.524719  0.251642  0.813232
			 0.425221  0.174006  0.888206
			 0.070270  0.048499  0.996348
			-0.083670 -0.144936  0.985897
			-0.030730 -0.284523  0.958177
			 0.035688  0.076168  0.996456
			-0.076645 -0.205946  0.975557
			-0.029758 -0.067171  0.997298
			-0.001390  0.099944  0.994992
			-0.221497 -0.148924  0.963722
			-0.357980 -0.267301  0.894651
			-0.267698 -0.245198  0.931781
			-0.414321 -0.277553  0.866777
			-0.499550 -0.231081  0.834896
			-0.936948 -0.336548 -0.094151
			-0.963400 -0.190148 -0.188957
			-0.975895  0.191186 -0.105246
			-0.964652  0.091528 -0.247124
			-0.970498  0.194272  0.142803
			-0.973668  0.152701  0.169272
			-0.937382  0.214279  0.274590
			-0.879421  0.113933  0.462211
			-0.609937 -0.389548  0.690094
			-0.669545 -0.418181  0.613869
			-0.622860 -0.452136  0.638450
			-0.792016 -0.236235  0.562941
			-0.875457 -0.074599 -0.477503
			-0.891894 -0.086759 -0.443844
			-0.920446  0.046548 -0.388089
			-0.251633  0.212515 -0.944203
			-0.487661  0.233974 -0.841096
			-0.778362  0.129062 -0.614407
			-0.906154  0.059828 -0.418696
			 0.009026  0.131621 -0.991259
			-0.072664  0.110148 -0.991255
			-0.910611  0.045689 -0.410730
			-0.894850  0.042424 -0.444347
			 0.045808  0.029875 -0.998503
			 0.044599  0.064120 -0.996945
			 0.250483 -0.125920 -0.959897
			 0.319185  0.025564 -0.947347
			 0.198687  0.055935 -0.978466
			 0.873738  0.219980 -0.433809
			 0.806162  0.229172 -0.545512
			 0.897590  0.251919 -0.361757
			 0.910012  0.286840 -0.299333
			 0.928146  0.279790 -0.245484
			 0.968645  0.235469 -0.079257
			 0.549594  0.213884 -0.807589
			 0.294904  0.144779 -0.944495
			 0.417050  0.245615 -0.875067
			 0.289808  0.249220 -0.924068
			 0.673427  0.218969 -0.706080
			 0.953071  0.251162  0.169035
			 0.937135  0.191091  0.291999
			 0.345113  0.254199  0.903482
			 0.144460  0.237046  0.960698
			 0.929954  0.173266  0.324289
			 0.883828  0.193809  0.425777
			 0.838397  0.217105  0.499956
			 0.799403  0.251301  0.545713
			 0.716280  0.362735  0.596126
			 0.560579  0.413605  0.717413
			 0.082178  0.264801  0.960795
			-0.137525 -0.302845  0.943065
			 0.068760  0.345414  0.935928
			-0.146351 -0.116129  0.982393
			-0.074074  0.069681  0.994815
			-0.029390  0.318368  0.947512
			-0.365533 -0.229321  0.902107
			-0.536990 -0.381361  0.752466
			-0.535442 -0.427830  0.728191
			-0.970479  0.143460 -0.193883
			-0.992448  0.122536  0.005718
			-0.924625  0.192236 -0.328806
			-0.999851 -0.010318 -0.013826
			-0.989754  0.047996  0.134473
			-0.947725 -0.032951  0.317382
			-0.683588 -0.544633  0.485883
			-0.689219 -0.555013  0.465766
			-0.700429 -0.437965  0.563548
			-0.693541 -0.340314  0.634970
			-0.619997 -0.336930  0.708578
			-0.823044 -0.458416  0.335342
			-0.897070 -0.018119 -0.441516
			-0.908160  0.085211 -0.409859
			-0.901132  0.018765 -0.433139
			-0.860941  0.158709 -0.483313
			-0.265867  0.086439 -0.960127
			-0.579983  0.022095 -0.814329
			-0.829515 -0.120310 -0.545372
			-0.904494 -0.135834 -0.404277
			-0.898551 -0.011920 -0.438708
			 0.006176  0.052967 -0.998577
			-0.059498  0.037588 -0.997520
			-0.895525  0.052760 -0.441873
			 0.071829  0.039978 -0.996615
			 0.040291  0.029238 -0.998760
			 0.299981  0.215898 -0.929193
			 0.214390  0.165807 -0.962572
			 0.101837  0.083588 -0.991283
			 0.777717  0.207924 -0.593232
			 0.805803  0.224244 -0.548085
			 0.875808  0.246976 -0.414684
			 0.887774  0.240819 -0.392254
			 0.908550  0.260519 -0.326599
			 0.949349  0.245673 -0.195911
			 0.977451  0.211023  0.007622
			 0.968113  0.194968  0.157306
			 0.447972  0.254752 -0.856985
			 0.668909  0.208129 -0.713613
			 0.592899  0.280971 -0.754670
			 0.320047  0.221547 -0.921134
			 0.305892  0.493688  0.814065
			 0.143607  0.557294  0.817802
			 0.956946  0.222798  0.186051
			 0.886942  0.268354  0.375925
			 0.853801  0.255704  0.453475
			 0.828374  0.225395  0.512829
			 0.823209  0.210817  0.527146
			 0.862337  0.243964  0.443685
			 0.804728  0.351231  0.478591
			 0.706123  0.423823  0.567242
			 0.511015  0.581979  0.632585
			 0.680748  0.467756  0.563725
			 0.092837  0.600099  0.794520
			 0.079543  0.617707  0.782375
			 0.046814  0.552156  0.832425
			-0.252682 -0.025824  0.967205
			-0.194801  0.258340  0.946210
			-0.119582  0.516386  0.847965
			-0.538484 -0.270146  0.798158
			-0.481565 -0.153770  0.862815
			-0.978405  0.088374 -0.186853
			-0.948625  0.130783 -0.288107
			-0.967328 -0.226812 -0.113284
			-0.935127 -0.353975 -0.015483
			-0.935754 -0.335678  0.108097
			-0.753562 -0.591318  0.287205
			-0.771999 -0.505324  0.385572
			-0.748275 -0.613305  0.252867
			-0.776181 -0.380734  0.502579
			-0.807435 -0.213177  0.550095
			-0.650916 -0.182301  0.736936
			-0.862812 -0.123153 -0.490295
			-0.762783 -0.271610 -0.586848
			-0.847952  0.027891 -0.529339
			-0.246253 -0.085065 -0.965465
			-0.527149 -0.178279 -0.830861
			-0.738911 -0.285254 -0.610443
			-0.864576 -0.304825 -0.399487
			-0.838318 -0.319838 -0.441506
			-0.009708  0.005653 -0.999937
			-0.147316 -0.100010 -0.984020
			 0.050426  0.053978 -0.997268
			 0.023057  0.037602 -0.999027
			 0.286080  0.211245 -0.934630
			 0.138496  0.193770 -0.971222
			 0.061465  0.175116 -0.982627
			 0.765802  0.296521 -0.570633
			 0.694013  0.274153 -0.665722
			 0.825383  0.318863 -0.465906
			 0.875776  0.294570 -0.382420
			 0.922924  0.245496 -0.296551
			 0.952349  0.238968 -0.189539
			 0.945789  0.321336 -0.047178
			 0.450156  0.259775 -0.854328
			 0.573430  0.258256 -0.777484
			 0.354408  0.719003  0.597855
			 0.128785  0.810904  0.570833
			 0.868685  0.408610  0.280045
			 0.816839  0.362639  0.448629
			 0.836657  0.255185  0.484650
			 0.773716  0.282725  0.566948
			 0.798302  0.256190  0.545051
			 0.868609  0.288605  0.402772
			 0.881500  0.335507  0.332255
			 0.786093  0.463131  0.409349
			 0.499917  0.618651  0.606098
			 0.661424  0.521135  0.539385
			 0.476815  0.643156  0.599165
			 0.620732  0.603213  0.500824
			 0.032631  0.784101  0.619775
			 0.049894  0.715695  0.696628
			-0.036436  0.681107  0.731277
			-0.435232  0.141443  0.889138
			-0.239682  0.499201  0.832677
			-0.300755  0.459805  0.835539
			-0.191521  0.655636  0.730384
			-0.535538 -0.149895  0.831102
			-0.533602 -0.026032  0.845335
			-0.942432 -0.239216 -0.233663
			-0.798890 -0.576384 -0.171920
			-0.820266 -0.567401 -0.072240
			-0.800343 -0.594405  0.078322
			-0.768195 -0.625731  0.135419
			-0.795412 -0.569989  0.205992
			-0.846215 -0.493452  0.201059
			-0.836563 -0.435140  0.332890
			-0.843512 -0.336218  0.418861
			-0.934403 -0.179051  0.307948
			-0.862600 -0.017848  0.505571
			-0.739086 -0.013810  0.673470
			-0.571589  0.061072  0.818264
			-0.744416 -0.420314 -0.518827
			-0.747742 -0.466611 -0.472394
			-0.651362 -0.532874 -0.540161
			-0.681748 -0.612699 -0.399773
			-0.756032 -0.366708 -0.542163
			-0.411499 -0.251426 -0.876044
			-0.611656 -0.371261 -0.698600
			-0.775289 -0.433676 -0.459186
			-0.842318 -0.405626 -0.354919
			-0.773094 -0.469494 -0.426499
			-0.088105 -0.022051 -0.995867
			-0.344349 -0.173009 -0.922763
			 0.025266  0.159009 -0.986954
			-0.033694  0.119524 -0.992259
			 0.419669  0.258812 -0.869997
			 0.261953  0.373129 -0.890031
			 0.099119  0.377421 -0.920722
			 0.026108  0.367520 -0.929649
			 0.758775  0.367771 -0.537591
			 0.690739  0.359167 -0.627597
			 0.600016  0.293218 -0.744314
			 0.801677  0.370755 -0.468886
			 0.848744  0.356113 -0.390917
			 0.889433  0.336714 -0.309084
			 0.923828  0.309510 -0.225269
			 0.909126  0.352273 -0.222248
			 0.901388  0.430302  0.048378
			 0.492681  0.627281  0.603145
			 0.247118  0.809630  0.532384
			 0.011384  0.846278  0.532620
			 0.904137  0.371663  0.210718
			 0.860817  0.391429  0.325234
			 0.879032  0.322612  0.351034
			 0.818282  0.300008  0.490316
			 0.827634  0.274618  0.489497
			 0.727832  0.324998  0.603851
			 0.763556  0.337305  0.550643
			 0.827171  0.382136  0.412019
			 0.883342  0.385965  0.265965
			 0.858076  0.456892  0.234427
			 0.731495  0.624028  0.274780
			 0.498502  0.563358  0.658880
			 0.386855  0.732483  0.560188
			 0.463024  0.792293  0.397343
			-0.055055  0.772134  0.633071
			-0.111806  0.717468  0.687560
			-0.542126  0.227742  0.808847
			-0.555582  0.398651  0.729662
			-0.245656  0.643303  0.725130
			-0.371093  0.626818  0.685119
			-0.240411  0.711192  0.660612
			-0.749925 -0.643049 -0.155243
			-0.769943 -0.638094 -0.004885
			-0.826095 -0.558336  0.076348
			-0.890430 -0.450470  0.064897
			-0.882663 -0.428217  0.193744
			-0.882948 -0.381615  0.273446
			-0.923871 -0.323202  0.204945
			-0.981381 -0.053286  0.184530
			-0.976934  0.009269  0.213340
			-0.911351  0.092242  0.401161
			-0.737431  0.173314  0.652808
			-0.589675  0.276822  0.758718
			-0.713489 -0.414052 -0.565238
			-0.820351 -0.519163 -0.239779
			-0.788337 -0.060078 -0.612303
			-0.901629 -0.052341 -0.429332
			-0.932501 -0.272884 -0.236592
			-0.493485 -0.304833 -0.814585
			-0.542917 -0.315959 -0.778082