<?xml version="1.0"?>
<VTKFile type="PolyData" version="0.1" byte_order="LittleEndian" compressor="vtkZLibDataCompressor">
	<PolyData>
		<Piece NumberOfPoints="8688" NumberOfVerts="0" NumberOfLines="0" NumberOfStrips="0" NumberOfPolys="17380">
		<PointData Normals="Normals">
		<DataArray type="Float32" Name="Normals" NumberOfComponents="3" format="ascii">
			 0.053808  0.966579 -0.250659
			 0.372084  0.854908 -0.361505
			-0.153626  0.851619 -0.501143
			 0.235793  0.971802 -0.001800
			 0.549134  0.835467 -0.021165
			-0.355168  0.828379 -0.433179
			-0.240072  0.937382 -0.252350
			 0.064743  0.921876 -0.382037
			 0.675235  0.721610 -0.152767
			-0.410525  0.806212 -0.426019
			 0.332426  0.940879  0.065116
			 0.632697  0.757276  0.161951
			-0.145054  0.989298 -0.015785
			 0.763498  0.643706  0.052093
			-0.478689  0.705695 -0.522352
			-0.512980  0.774027 -0.371125
			-0.462357  0.882606 -0.085047
			 0.539002  0.819106 -0.196323
			 0.092246  0.954390 -0.283954
			-0.376482  0.901151 -0.214915
			 0.896096  0.442469 -0.035122
			 0.908631  0.417475  0.010224
			-0.536834  0.796541 -0.278086
			-0.537381  0.743858 -0.397363
			 0.385631  0.907967  0.163963
			 0.757110  0.616791  0.215299
			-0.141879  0.986692  0.079425
			 0.754165  0.604646  0.256201
			 0.754894  0.480116  0.446792
			-0.422302  0.905715  0.036623
			 0.912768  0.376425  0.158613
			-0.654428  0.583159 -0.481300
			-0.590210  0.670488 -0.449553
			-0.692989  0.679538 -0.240821
			-0.590574  0.796145 -0.131817
			 0.870750  0.466464 -0.155584
			 0.533177  0.786839 -0.310817
			 0.327596  0.866479 -0.376689
			-0.012485  0.885760 -0.463975
			-0.313427  0.905593 -0.285769
			-0.580835  0.755381 -0.303364
			 0.995807  0.091432  0.003015
			 0.995808  0.076072  0.050793
			 0.985962  0.099964  0.133740
			-0.581777  0.764863 -0.276623
			-0.548404  0.764046 -0.339834
			 0.387574  0.762138  0.518586
			 0.777597  0.528036  0.341352
			-0.114774  0.961128  0.251118
			 0.865391  0.268363  0.423179
			-0.372835  0.903521  0.211290
			 0.860065  0.385049  0.334703
			 0.801310  0.246017  0.545324
			 0.783060 -0.039573  0.620686
			-0.461128  0.884251  0.073897
			 0.961416  0.027398  0.273729
			-0.652181  0.675493 -0.344047
			-0.581163  0.732903 -0.353699
			-0.570237  0.774943 -0.272567
			-0.511573  0.857340 -0.057103
			 0.633891  0.723504 -0.273357
			 0.956877  0.268006 -0.112072
			 0.997215  0.035039 -0.065842
			 0.157038  0.933217 -0.323180
			-0.403489  0.784850 -0.470326
			-0.359513  0.829649 -0.427121
			-0.503084  0.784743 -0.362056
			-0.577013  0.760215 -0.298544
			 0.978798 -0.204825 -0.000470
			 0.980224 -0.181607  0.078613
			 0.966759 -0.171668  0.189492
			-0.560934  0.790359 -0.246344
			-0.558109  0.781572 -0.278673
			-0.565101  0.751161 -0.341200
			 0.724108  0.284574  0.628240
			 0.377074  0.441960  0.813933
			-0.131299  0.796582  0.590100
			 0.753309  0.012690  0.657545
			-0.357036  0.826064  0.436054
			-0.394816  0.869393  0.297112
			 0.834083 -0.130071  0.536086
			 0.732582 -0.191794  0.653099
			 0.754015 -0.194578  0.627376
			 0.844053 -0.157719  0.512542
			 0.864271 -0.261240  0.429871
			-0.386046  0.900849  0.198593
			-0.601185  0.716145 -0.354559
			-0.576475  0.752114 -0.319377
			-0.631897  0.702046 -0.328385
			-0.595008  0.729583 -0.337156
			-0.595925  0.781231 -0.185881
			-0.559678  0.828644 -0.010488
			 0.660457  0.737920 -0.138816
			 0.946448  0.313077 -0.078857
			 0.993796 -0.107769 -0.027481
			 0.982786 -0.174982 -0.059271
			 0.465224  0.864303 -0.191172
			-0.211636  0.940206 -0.266876
			-0.432363  0.835353 -0.339482
			-0.466412  0.810686 -0.353904
			-0.545624  0.781517 -0.302531
			-0.497853  0.801158 -0.332098
			 0.969501 -0.244374 -0.018705
			 0.970990 -0.236817  0.033101
			 0.968324 -0.208011  0.138129
			 0.930641 -0.210397  0.299399
			-0.506326  0.822135 -0.260245
			-0.503345  0.831191 -0.236147
			-0.521055  0.798499 -0.301497
			-0.538603  0.776724 -0.326505
			 0.562564  0.059439  0.824614
			 0.173112  0.341956  0.923633
			-0.195620  0.580537  0.790385
			 0.614790 -0.176314  0.768730
			-0.192113  0.716839  0.670250
			 0.775404 -0.083406  0.625933
			 0.696157 -0.138005  0.704500
			 0.957525 -0.075582  0.278269
			 0.871029 -0.035277  0.489964
			-0.037214  0.827477  0.560264
			-0.501307  0.851020  0.156384
			-0.569155  0.770064 -0.288208
			-0.586343  0.758305 -0.284912
			-0.665767  0.683347 -0.299652
			-0.585475  0.757042 -0.290011
			-0.633155  0.748195 -0.198292
			-0.589034  0.803649  0.084781
			 0.920215  0.335028 -0.202385
			 0.992445 -0.120167 -0.024751
			 0.962479 -0.268460 -0.039542
			 0.970257 -0.240051 -0.031272
			 0.618214  0.712479 -0.331941
			-0.034808  0.941178 -0.336113
			-0.418121  0.833223 -0.361819
			-0.473279  0.808165 -0.350539
			-0.488322  0.792825 -0.364651
			-0.489599  0.808047 -0.327646
			 0.989563 -0.139313 -0.036830
			 0.994288 -0.106475 -0.007324
			 0.994328 -0.078256  0.072023
			-0.515542  0.815544 -0.262876
			-0.531909  0.812114 -0.239881
			-0.528272  0.805985 -0.267052
			 0.383563 -0.030483  0.923012
			 0.068112  0.203036  0.976799
			 0.396536 -0.086577  0.913928
			 0.605006 -0.132143  0.785179
			 0.167772  0.178929  0.969452
			 0.778147  0.001443  0.628081
			 0.681188 -0.084711  0.727191
			 0.611409 -0.151274  0.776721
			 0.979829  0.128763  0.152826
			 0.893847  0.095626  0.438057
			 0.278000  0.312836  0.908213
			-0.407364  0.813780  0.414509
			-0.736119  0.449167  0.506337
			-0.573019  0.771959 -0.275186
			-0.552463  0.784287 -0.282273
			-0.555555  0.787690 -0.266276
			-0.544393  0.782803 -0.301422
			-0.543238  0.839532  0.008882
			-0.555134  0.642458  0.528274
			 0.639930  0.470988 -0.607173
			 0.935932 -0.015350 -0.351847
			 0.972347 -0.205743 -0.110505
			 0.930454 -0.356941 -0.082756
			 0.942112 -0.308370 -0.131657
			 0.975637 -0.205744 -0.076167
			 0.331527  0.720154 -0.609482
			-0.130344  0.754197 -0.643582
			-0.420968  0.810231 -0.407813
			-0.460363  0.814080 -0.354034
			-0.448054  0.831530 -0.328339
			-0.465642  0.817735 -0.338360
			-0.457792  0.830730 -0.316725
			-0.488739  0.818355 -0.302372
			 0.992574 -0.040510 -0.114696
			 0.996806  0.042493 -0.067618
			 0.994175  0.107778 -0.000363
			-0.550993  0.793184 -0.259356
			-0.559465  0.792161 -0.243885
			-0.550148  0.800601 -0.237434
			-0.561261  0.790104 -0.246418
			 0.231565  0.012641  0.972737
			 0.493487 -0.143797  0.857784
			 0.297906 -0.114004  0.947763
			 0.143879 -0.030490  0.989126
			-0.183344 -0.316577  0.930679
			 0.002653 -0.058636  0.998276
			 0.744915  0.171621  0.644708
			 0.636267  0.026980  0.770997
			 0.525107 -0.132944  0.840588
			 0.445922 -0.192024  0.874232
			 0.936693  0.346719  0.048912
			 0.825126  0.404077  0.394826
			-0.278756  0.161543  0.946678
			-0.811548  0.045069  0.582545
			-0.302326  0.106403  0.947247
			-0.554569  0.799803 -0.229715
			-0.566543  0.777228 -0.273761
			-0.572626  0.757999 -0.312309
			-0.581009  0.765134 -0.277486
			-0.544667  0.786940 -0.289938
			-0.566398  0.817398 -0.105137
			-0.550130  0.749891  0.367451
			-0.367930  0.323051  0.871932
			 0.755136  0.193474 -0.626369
			 0.245387  0.657356 -0.712509
			 0.872740 -0.298409 -0.386365
			 0.892331 -0.405431 -0.198423
			 0.886680 -0.415209 -0.203472
			 0.900416 -0.364732 -0.237110
			 0.949257 -0.189435 -0.251049
			-0.164233  0.735704 -0.657089
			-0.327487  0.784559 -0.526517
			-0.378991  0.881189 -0.282617
			-0.396138  0.879630 -0.263297
			-0.494559  0.833945 -0.244841
			 0.938474  0.188631 -0.289283
			 0.973244  0.173971 -0.150101
			 0.951187  0.290258 -0.104852
			-0.660324  0.694007 -0.286926
			-0.569337  0.779685 -0.260667
			-0.543567  0.807191 -0.230169
			 0.135692 -0.096366  0.986053
			 0.299759 -0.177604  0.937337
			-0.015241 -0.042507  0.998980
			 0.671658  0.348495  0.653779
			 0.572337  0.192208  0.797174
			 0.473457  0.021546  0.880553
			 0.416430 -0.199733  0.886957
			 0.346980 -0.120894  0.930048
			 0.894989  0.440789 -0.068550
			 0.868682  0.485609  0.097857
			 0.824852  0.492935  0.276829
			 0.601739  0.429503  0.673378
			 0.723915  0.492474  0.483132
			-0.101699  0.035740  0.994173
			-0.572386  0.780860 -0.250265
			-0.583962  0.781361 -0.220144
			-0.595310  0.744564 -0.302044
			-0.638723  0.700570 -0.318175
			-0.704914  0.676733 -0.212436
			-0.636685  0.743129 -0.205891
			-0.795799  0.596852 -0.102325
			-0.708989  0.698051  0.100302
			-0.620154  0.474334  0.624833
			-0.274632  0.009733  0.961500
			-0.560521  0.065158  0.825573
			 0.752070 -0.006552 -0.659051
			 0.369258  0.353531 -0.859456
			 0.867758 -0.417637 -0.269397
			 0.864511 -0.430989 -0.258591
			 0.885350 -0.395216 -0.244866
			 0.923532 -0.291153 -0.249638
			 0.942126 -0.162402 -0.293298
			 0.928503  0.025775 -0.370429
			-0.003721  0.381469 -0.924374
			-0.069868  0.777119 -0.625463
			-0.351109  0.876364 -0.329710
			 0.292942  0.167112 -0.941413
			-0.376312  0.884360 -0.276217
			-0.464614  0.854860 -0.230973
			-0.687276  0.697962 -0.201247
			 0.888091  0.275351 -0.368070
			 0.806228  0.479461 -0.346573
			 0.825259  0.500481 -0.261663
			 0.892914  0.408322 -0.189679
			 0.880160  0.452666 -0.142871
			-0.818695  0.517304 -0.249271
			-0.795526  0.467159 -0.385877
			-0.722596  0.552917 -0.414896
			 0.128714 -0.125763  0.983675
			 0.334552 -0.222989  0.915615
			 0.231610 -0.162975  0.959060
			 0.044580 -0.083526  0.995508
			 0.521948  0.306306  0.796082
			 0.342960  0.098937  0.934125
			 0.234968 -0.024644  0.971691
			 0.336126 -0.168167  0.926682
			 0.312826 -0.058507  0.948007
			 0.816440  0.569978 -0.092470
			 0.846539  0.532202  0.011523
			 0.837061  0.507122  0.205322
			 0.369017  0.249995  0.895170
			 0.574804  0.422175  0.700977
			 0.636369  0.647540  0.419197
			-0.103770 -0.078622  0.991489
			-0.791881  0.477347 -0.380873
			-0.766647  0.611857 -0.194639
			-0.774106  0.578291 -0.257563
			-0.834412  0.505752 -0.219022
			-0.939008  0.342186 -0.034240
			-0.851975  0.359690  0.380475
			-0.964949  0.219520  0.143817
			-0.375985 -0.124457  0.918230
			-0.857167 -0.017453  0.514742
			-0.639813 -0.145142  0.754700
			 0.804359 -0.310728 -0.506414
			 0.466480 -0.068828 -0.881850
			 0.808198 -0.507596 -0.298600
			 0.818895 -0.391402 -0.419780
			 0.918553 -0.277594 -0.281430
			 0.958798 -0.016882 -0.283587
			 0.937571  0.157294 -0.310193
			 0.359966 -0.054733 -0.931359
			-0.142421  0.239252 -0.960456
			-0.512267  0.409781 -0.754759
			-0.452259  0.736921 -0.502404
			 0.409100 -0.355387 -0.840439
			 0.260340 -0.305613 -0.915873
			-0.533301  0.753321 -0.384834
			-0.700589  0.645635 -0.303857
			-0.825980  0.521909 -0.212998
			 0.869208  0.363175 -0.335531
			 0.796930  0.528617 -0.292348
			 0.625962  0.731207 -0.271124
			 0.658171  0.721856 -0.213857
			 0.700168  0.685456 -0.199786
			 0.773574  0.590260 -0.230600
			 0.819234  0.554268 -0.147116
			-0.826659  0.523845 -0.205479
			-0.834422  0.456230 -0.309181
			-0.821406  0.375181 -0.429570
			-0.850579  0.241931 -0.466888
			 0.063989 -0.108103  0.992078
			 0.324410 -0.105293  0.940038
			 0.158860 -0.092005  0.983005
			 0.190316  0.071550  0.979112
			 0.210113  0.059257  0.975880
			 0.296278  0.086294  0.951195
			 0.317074 -0.020481  0.948180
			 0.716588  0.680907 -0.151217
			 0.670306  0.737942 -0.078301
			 0.683590  0.728601 -0.042953
			 0.684916  0.723584  0.085543
			 0.296335  0.444088  0.845560
			 0.186093  0.160116  0.969398
			 0.413784  0.905309  0.095914
			 0.203573  0.897803  0.390524
			-0.102802 -0.093169  0.990329
			-0.935306  0.061025 -0.348539
			-0.953575  0.190777 -0.233020
			-0.942230  0.231373 -0.242217
			-0.925523  0.335414 -0.175795
			-0.945137  0.289974  0.150438
			-0.962067  0.001892  0.272808
			-0.658132 -0.134163  0.740852
			-0.353092 -0.065590  0.933287
			-0.842161 -0.169038  0.512046
			 0.631682 -0.438150 -0.639533
			 0.625498 -0.544504 -0.558809
			 0.674099 -0.341200 -0.655113
			 0.790645 -0.142563 -0.595447
			 0.895339 -0.005497 -0.445352
			 0.867164  0.368566 -0.334942
			-0.196990 -0.319803 -0.926780
			-0.352543  0.217393 -0.910194
			-0.498159  0.598603 -0.627306
			 0.481811 -0.440721 -0.757379
			-0.051538 -0.005553 -0.998656
			 0.528598 -0.219999 -0.819868
			 0.192287 -0.014171 -0.981236
			-0.645883  0.543029 -0.536614
			-0.731881  0.520139 -0.440234
			-0.790576  0.502340 -0.350206
			-0.802890  0.558630 -0.208089
			 0.620232  0.752239 -0.222372
			 0.391756  0.919511 -0.032051
			 0.606270  0.789790 -0.093104
			 0.680742  0.710148 -0.179663
			-0.762649  0.629201 -0.149906
			-0.782360  0.576658 -0.235327
			-0.821361  0.459162 -0.338434
			-0.808731  0.481896 -0.337239
			-0.904387  0.329892 -0.270659
			-0.053560 -0.057519  0.996907
			 0.178186 -0.002082  0.983995
			 0.154951  0.130827  0.979221
			 0.240498  0.213266  0.946931
			 0.288868  0.243498  0.925886
			 0.307058  0.116949  0.944478
			 0.749255  0.641609 -0.164178
			 0.618740  0.746593 -0.244457
			 0.502254  0.858571 -0.102941
			 0.458226  0.888107 -0.035984
			-0.148703  0.555550  0.818078
			-0.021500  0.178814  0.983648
			 0.113171  0.993346  0.021368
			 0.222606  0.972924 -0.062173
			-0.020014  0.991342  0.129772
			-0.238746  0.861731  0.447684
			-0.974116  0.019267 -0.225224
			-0.909508  0.211987 -0.357571
			-0.871685  0.408629 -0.270532
			-0.928425  0.357040  0.102713
			-0.851809  0.027657  0.523121
			-0.875565  0.152235  0.458487
			-0.722679 -0.004897  0.691167
			-0.561778 -0.058910  0.825188
			-0.318444 -0.065864  0.945651
			 0.674007 -0.043390 -0.737449
			 0.747861  0.004282 -0.663842
			 0.768923  0.179609 -0.613595
			 0.762541  0.417777 -0.493958
			 0.542717  0.779108 -0.313766
			-0.554854  0.398490 -0.730303
			-0.315874  0.262750 -0.911694
			 0.524919  0.098018 -0.845489
			-0.005554  0.184534 -0.982810
			 0.235524  0.273221 -0.932673
			-0.657560  0.508012 -0.556362
			-0.721623  0.554784 -0.414095
			-0.739559  0.598467 -0.308041
			-0.700350  0.693103 -0.170642
			 0.270051  0.960528 -0.066778
			 0.129925  0.942456  0.308051
			 0.527457  0.794699  0.300404
			 0.655115  0.755001  0.028246
			 0.013901  0.987419  0.157511
			 0.778647  0.627433 -0.005970
			-0.635714  0.769543 -0.060588
			-0.714374  0.689217 -0.121036
			-0.778758  0.587394 -0.220234
			-0.805707  0.496396 -0.323152
			-0.760728  0.588419 -0.273965
			-0.870343  0.427792 -0.243918
			-0.747309  0.636686 -0.190161
			-0.046075 -0.030244  0.998480
			 0.146708  0.079525  0.985978
			 0.223236  0.163005  0.961039
			 0.297700  0.247607  0.921990
			 0.245176  0.264258  0.932768
			 0.256176  0.215994  0.942189
			 0.965907  0.175246 -0.190557
			 0.765787  0.436789 -0.472002
			 0.479136  0.620868 -0.620445
			 0.312721  0.902529 -0.296051
			-0.538219  0.320239  0.779594
			-0.360186  0.143891  0.921716
			-0.321901  0.040793  0.945894
			 0.016182  0.050667  0.998584
			-0.051627  0.998369 -0.024373
			 0.021883  0.975143 -0.220495
			-0.028259  0.996177  0.082663
			-0.123050  0.973713  0.191682
			-0.534169  0.617414  0.577464
			-0.335503  0.867030  0.368372
			-0.777438  0.543546 -0.316461
			-0.949093  0.295490 -0.109127
			-0.864853  0.450824 -0.220878
			-0.963753  0.053548  0.261368
			-0.800722  0.038738  0.597782
			-0.872225 -0.034084  0.487915
			-0.781877 -0.004775  0.623415
			-0.719709  0.025529  0.693806
			-0.563566 -0.006694  0.826044
			-0.281813 -0.008497  0.959432
			 0.678546  0.267941 -0.683947
			 0.716335  0.276351 -0.640699
			 0.660039  0.484094 -0.574457
			 0.451208  0.813498 -0.366923
			 0.042384  0.995804 -0.081109
			-0.471230  0.661517 -0.583384
			-0.159919  0.415426 -0.895459
			 0.504934  0.371782 -0.778987
			 0.033944  0.327323 -0.944303
			 0.271446  0.669585 -0.691356
			 0.044568  0.519765 -0.853146
			-0.647640  0.687929 -0.327591
			-0.588294  0.766512 -0.257623
			-0.571908  0.813555 -0.105117
			-0.192203  0.968524  0.158176
			 0.194023  0.858690  0.474349
			-0.173266  0.916071  0.361653
			 0.466893  0.708812  0.528769
			 0.803182  0.393722  0.447082
			 0.899785  0.414388  0.136634
			 0.919020  0.393818  0.017598
			-0.523674  0.851562  0.024664
			-0.612391  0.790392  0.016045
			-0.764270  0.643977  0.034429
			-0.867752  0.469407 -0.163291
			-0.922275  0.254595 -0.290846
			-0.852608  0.399678 -0.336627
			-0.856228  0.478976 -0.193535
			-0.045573  0.024258  0.998666
			 0.172368  0.139177  0.975151
			 0.085333  0.109619  0.990304
			 0.304168  0.102532  0.947084
			 0.311119  0.165339  0.935878
			 0.246152  0.179276  0.952507
			 0.982572 -0.136670 -0.125987
			 0.994947 -0.065620  0.075986
			 0.899352 -0.010638 -0.437096
			 0.756659  0.118750 -0.642935
			 0.484458  0.296238 -0.823131
			 0.217079  0.711491 -0.668324
			 0.121140  0.429313 -0.894995
			 0.117004  0.841713 -0.527095
			-0.712846  0.162478  0.682240
			-0.587689 -0.009111  0.809035
			-0.468368  0.048582  0.882197
			-0.282385 -0.076069  0.956280
			 0.163553 -0.092503  0.982188
			-0.085561  0.994851  0.054317
			-0.231042  0.941846 -0.244019
			-0.144889  0.815213 -0.560745
			 0.134336  0.968235  0.210891
			-0.044498  0.988724  0.142988
			-0.609915  0.484863  0.626826
			-0.087867  0.984443  0.152153
			-0.707020  0.494625  0.505439
			-0.375416  0.895632  0.238549
			-0.994445  0.105181  0.004036
			-0.975628  0.205560 -0.076776
			-0.945319 -0.017613  0.325672
			-0.834007  0.080539  0.545844
			-0.899644  0.048480  0.433925
			-0.665882  0.148448  0.731139
			-0.442099  0.095632  0.891854
			-0.202725  0.099120  0.974206
			 0.531841  0.555314 -0.639353
			 0.402982  0.793973 -0.455206
			 0.018487  0.984075 -0.176792
			-0.435043  0.886089  0.159946
			-0.293238  0.954770  0.049256
			-0.424804  0.695529 -0.579467
			-0.243418  0.677493 -0.694082
			 0.088227  0.485745 -0.869637
			 0.055085  0.474068 -0.878763
			 0.266837  0.864195 -0.426574
			-0.058778  0.948765 -0.310468
			-0.195341  0.714461 -0.671854
			-0.070584  0.527871 -0.846386
			-0.511701  0.801302 -0.309964
			-0.425361  0.902158 -0.071960
			-0.397280  0.873745  0.280603
			-0.085807  0.823751  0.560421
			 0.411449  0.489843  0.768611
			 0.635869  0.221977  0.739187
			 0.779715  0.164776  0.604064
			 0.899216  0.158861  0.407644
			 0.957596  0.036966  0.285732
			-0.508979  0.850233  0.134326
			-0.626546  0.757967  0.181455
			-0.723325  0.611873  0.320019
			-0.902957  0.422868  0.076498
			-0.927317  0.130615 -0.350747
			-0.946961  0.292778 -0.132461
			-0.927923  0.204457 -0.311700
			-0.952991  0.195554 -0.231444
			-0.020601  0.153375  0.987953
			 0.225269  0.083184  0.970739
			 0.180331  0.124729  0.975665
			 0.168304  0.259214  0.951042
			 0.332256 -0.014011  0.943085
			 0.306714  0.075436  0.948808
			 0.993994 -0.107663  0.019634
			 0.969380  0.043261 -0.241726
			 0.977812 -0.093092  0.187664
			 0.860087  0.139858 -0.490602
			 0.741720 -0.028253 -0.670114
			 0.424144  0.113140 -0.898499
			 0.140069  0.208875 -0.967859
			-0.029786  0.650169 -0.759206
			-0.256811  0.417677 -0.871547
			-0.227069  0.187414 -0.955676
			-0.758572  0.090409  0.645286
			-0.742732 -0.107619  0.660884
			-0.594692 -0.207770  0.776642
			-0.248527 -0.352436  0.902232
			 0.155076 -0.290841  0.944120
			 0.353423 -0.059247  0.933585
			 0.414870 -0.124802  0.901281
			-0.075873  0.953858  0.290515
			-0.253628  0.966658  0.035275
			-0.500509  0.661223 -0.558816
			-0.560599  0.800353 -0.212516
			-0.304612  0.592187 -0.746007
			 0.204828  0.893992  0.398527
			 0.280858  0.949458  0.140172
			 0.422286  0.845126  0.327776
			 0.256543  0.960394  0.108758
			-0.789379  0.486440  0.374510
			-0.842090  0.274481  0.464267
			-0.865033  0.045849  0.499615
			 0.189370  0.979707  0.065671
			-0.499164  0.854987  0.140826
			-0.978914  0.135546  0.152820
			-0.967079  0.235754 -0.095806
			-0.927551  0.122021  0.353213
			-0.887745  0.220295  0.404202
			-0.804639  0.229625  0.547565
			-0.543357  0.211573  0.812404
			-0.732232  0.234299  0.639484
			-0.371141  0.181573  0.910651
			-0.103809  0.224573  0.968912
			-0.280947  0.239012  0.929485
			-0.382641  0.922141  0.056937
			-0.220743  0.973674 -0.056838
			-0.616336  0.703283  0.354293
			-0.642839  0.731709  0.226627
			 0.024016  0.733882 -0.678853
			-0.259858  0.922417 -0.285693
			 0.202110  0.500284 -0.841942
			 0.170004  0.482536 -0.859219
			 0.058450  0.470973 -0.880209
			-0.353444  0.935084 -0.026380
			-0.552171  0.750547 -0.363024
			-0.479708  0.549021 -0.684438
			-0.327729  0.435715 -0.838300
			-0.079189  0.399521 -0.913297
			-0.337193  0.941433 -0.002258
			-0.135741  0.430067  0.892534
			-0.566985  0.549039  0.614072
			 0.280363  0.272463  0.920413
			 0.468352  0.236160  0.851396
			 0.485264  0.142143  0.862736
			 0.535943  0.122742  0.835284
			 0.547926  0.018266  0.836327
			 0.767785 -0.016110  0.640505
			 0.889723  0.007834  0.456433
			 0.934530 -0.027932  0.354786
			-0.633103  0.722124  0.278779
			-0.645110  0.719368  0.257572
			-0.444267  0.871773  0.206493
			-0.661884  0.680772  0.313781
			-0.770195  0.561965  0.301653
			-0.646004  0.690173  0.326098
			-0.605087  0.733896  0.308654
			-0.744266  0.653830  0.136285
			-0.842601  0.537290 -0.036641
			-0.948972  0.107048 -0.296635
			-0.907407  0.287805 -0.306236
			-0.868737  0.436545 -0.233935
			 0.004521  0.332271  0.943173
			 0.308007 -0.002615  0.951381
			 0.254484  0.059826  0.965225
			 0.313717  0.129526  0.940640
			 0.323159  0.247750  0.913339
			 0.132309  0.318242  0.938731
			 0.999359  0.035406  0.005345
			 0.946733  0.109644 -0.302779
			 0.971680  0.035532  0.233612
			 0.891690  0.021069 -0.452157
			 0.871138 -0.232975 -0.432251
			 0.675198 -0.288546 -0.678859
			 0.364962 -0.230163 -0.902124
			-0.009616 -0.127931 -0.991736
			-0.519653  0.416178 -0.746161
			-0.377263  0.218620 -0.899932
			-0.242150  0.060782 -0.968333
			-0.235732 -0.079313 -0.968576
			-0.807238 -0.110844  0.579724
			-0.764627 -0.192006  0.615206
			-0.534838 -0.330928  0.777454
			-0.719737 -0.309840  0.621271
			-0.573555 -0.487050  0.658648
			-0.281951 -0.623211  0.729460
			 0.221195 -0.511530  0.830307
			 0.386963  0.004206  0.922085
			 0.474201 -0.398859  0.784885
			 0.399737 -0.158186  0.902877
			-0.225717  0.934894  0.273908
			-0.253661  0.951472  0.174232
			-0.004628  0.875199  0.483741
			-0.259659  0.853498  0.451794
			-0.397797  0.907445  0.135281
			-0.699025  0.586510 -0.409109
			-0.703567  0.387341 -0.595785
			-0.725599  0.655114  0.210554
			-0.909742  0.305936 -0.280663
			 0.190724  0.852590  0.486534
			 0.588108  0.795836  0.144131
			 0.379227  0.767144  0.517375
			 0.636193  0.711419  0.298565
			 0.597343  0.800660  0.046108
			-0.888864  0.412385  0.199649
			-0.860539  0.171411  0.479678
			-0.942816  0.118584  0.311507
			-0.831335 -0.213752  0.513022
			-0.883340 -0.167973  0.437602
			-0.901405 -0.043711  0.430766
			 0.146666  0.988459  0.037922
			 0.606000  0.794729 -0.034201
			-0.582362  0.800360  0.142399
			-0.928389  0.337817  0.154832
			-0.919451  0.233426  0.316421
			-0.914177  0.269131  0.303065
			-0.831911  0.537055 -0.139630
			-0.906087  0.420327  0.048281
			-0.866230  0.250117  0.432536
			-0.460509  0.250408  0.851602
			-0.695096  0.269937  0.666315
			-0.830628  0.259529  0.492648
			-0.128639  0.351976  0.927127
			-0.448660  0.284859  0.847089
			-0.358654  0.298741  0.884376
			-0.456748  0.178446  0.871515
			-0.709652  0.662765  0.239032
			-0.458571  0.868263  0.189294
			-0.781755  0.444120  0.437740
			-0.763000  0.538470  0.357606
			-0.816516  0.420880  0.395173
			 0.125895  0.591460 -0.796445
			-0.015926  0.874978 -0.483901
			-0.212100  0.975266 -0.062208
			 0.178954  0.444511 -0.877716
			 0.214191  0.445923 -0.869065
			 0.088534  0.345196 -0.934345
			-0.660052  0.730058  0.177049
			-0.908836  0.363444 -0.204758
			-0.701999  0.291008 -0.650009
			-0.519136  0.291339 -0.803505
			-0.454614  0.139581 -0.879684
			-0.203580  0.156913 -0.966402
			-0.417705  0.345797  0.840207
			-0.548728  0.384716  0.742220
			-0.194016  0.235446  0.952325
			-0.032201  0.193513  0.980569
			-0.730272  0.359991  0.580611
			-0.051615  0.089629  0.994637
			 0.197214  0.027043  0.979987
			 0.248102 -0.122375  0.960973
			 0.655047 -0.090539  0.750144
			 0.456192 -0.196402  0.867937
			 0.800582 -0.084995  0.593164
			 0.924759  0.046869  0.377656
			 0.861118 -0.117492  0.494642
			 0.902673 -0.101665  0.418146
			 0.916962 -0.082768  0.390296
			-0.556330  0.732997  0.391423
			-0.687423  0.666992  0.287352
			-0.678537  0.599729  0.424160
			-0.701123  0.649342  0.294587
			-0.679191  0.665100  0.310389
			-0.276202  0.947594  0.160554
			-0.468562  0.810074  0.352462
			-0.675827  0.685034  0.272004
			-0.622859  0.749547  0.224109
			-0.602249  0.785879  0.140319
			-0.706882  0.706079 -0.042072
			-0.025269  0.323367  0.945936
			 0.318850 -0.073735  0.944933
			 0.419142 -0.054000  0.906313
			 0.382691  0.066082  0.921510
			 0.252374  0.158432  0.954571
			 0.077680  0.156873  0.984559
			 0.993599 -0.111834  0.015940
			 0.944467 -0.078070 -0.319198
			 0.958886  0.012357  0.283524
			 0.906788 -0.317418 -0.277456
			 0.794516 -0.392938 -0.462972
			 0.530357 -0.431103 -0.729980
			 0.177170 -0.437483 -0.881600
			 0.311464 -0.443475 -0.840428
			-0.163397 -0.366885 -0.915804
			 0.010992 -0.585290 -0.810749
			-0.567224  0.057915 -0.821525
			 0.072690 -0.144741 -0.986796
			-0.079650 -0.187525 -0.979025
			-0.756150 -0.415917  0.505223
			-0.566634 -0.593421  0.571644
			-0.687139 -0.536022  0.490429
			-0.138950 -0.683537  0.716568
			-0.395447 -0.616933  0.680452
			 0.244588 -0.657079  0.713039
			 0.465885 -0.615001  0.636179
			 0.383849 -0.396748  0.833817
			 0.463684 -0.569876  0.678409
			-0.245379  0.920309  0.304666
			-0.326452  0.909856  0.256107
			-0.122588  0.829782  0.544457
			-0.220565  0.888987  0.401313
			-0.290680  0.767071  0.571933
			-0.240432  0.763083  0.599914
			-0.490973  0.795637  0.354835
			-0.649257  0.666350  0.366664
			-0.841864  0.490266  0.225621
			-0.565739  0.698239  0.438636
			-0.914642  0.374578  0.152056
			-0.970987  0.228753  0.069685
			-0.924928 -0.359312 -0.124108
			-0.345391 -0.716611 -0.605948
			-0.013298  0.727037  0.686470
			 0.743944  0.666003  0.054663
			 0.483259  0.605695  0.632135
			 0.792814  0.563343  0.232573
			-0.891166  0.360729  0.275132
			-0.963721  0.134522  0.230534
			-0.958771 -0.087075  0.270510
			-0.982441 -0.011412  0.186223
			-0.850907 -0.344076  0.396951
			-0.905716 -0.216658  0.364333
			 0.071129  0.979669  0.187591
			 0.506132  0.861652  0.037224
			 0.784634  0.611655 -0.101132
			 0.754461  0.652052 -0.074945
			-0.592394  0.670237  0.447048
			-0.916115  0.372181  0.149044
			-0.913780  0.349404  0.207178
			-0.892522  0.352011  0.281944
			-0.834537  0.302956  0.460180
			-0.710068  0.690566  0.137557
			-0.870214  0.477185  0.122565
			-0.600342  0.213532  0.770710
			-0.787264  0.207839  0.580533
			-0.691626  0.122209  0.711841
			-0.179214  0.297897  0.937625
			-0.424810  0.205652  0.881614
			-0.586223  0.134818  0.798854
			-0.662609  0.649521  0.372924
			-0.830211  0.332575  0.447375
			-0.574767  0.639511  0.510557
			-0.822714  0.375059  0.427167
			-0.830859  0.263270  0.490268
			-0.809226  0.288948  0.511530
			-0.807529  0.178551  0.562154
			 0.173929  0.670697 -0.721051
			 0.033720  0.955279 -0.293778
			 0.356395  0.550678 -0.754809
			 0.301016  0.312719 -0.900886
			 0.074227  0.122704 -0.989664
			-0.767751  0.440277  0.465525
			-0.931028  0.284886  0.228093
			-0.996622  0.071814 -0.039839
			-0.919069  0.026580 -0.393199
			-0.735826 -0.067606 -0.673788
			-0.533425 -0.046426 -0.844572
			-0.397110 -0.171931 -0.901523
			-0.084971 -0.129901 -0.987879
			-0.385396  0.339467  0.858040
			-0.579710  0.352834  0.734468
			-0.249341  0.212704  0.944768
			-0.262664  0.324819  0.908570
			-0.183868  0.099663  0.977885
			-0.753814  0.226853  0.616687
			-0.323920  0.014191  0.945978
			-0.217145 -0.072174  0.973468
			-0.038029 -0.243433  0.969172
			 0.286121 -0.344680  0.894053
			 0.692568 -0.138099  0.708010
			 0.406882 -0.374554  0.833161
			 0.500964 -0.364722  0.784865
			 0.699336 -0.253406  0.668367
			 0.819523 -0.302062  0.486971
			 0.882492 -0.254430  0.395567
			 0.948114 -0.156077  0.276985
			 0.909408 -0.223954  0.350459
			-0.569063  0.669101  0.477987
			-0.622808  0.560985  0.545350
			-0.771403  0.561955  0.298571
			-0.717456  0.420495  0.555375
			-0.825836  0.419449  0.376906
			-0.772181  0.594948  0.223098
			-0.147681  0.987897 -0.047430
			-0.432285  0.855911  0.283806
			-0.310158  0.943223  0.118880
			-0.509628  0.755817  0.411120
			-0.607713  0.772688  0.183408
			-0.816007  0.552218  0.170843
			-0.769595  0.605666  0.202216
			-0.053476  0.154610  0.986527
			 0.479312 -0.321689  0.816563
			 0.468128 -0.232596  0.852499
			 0.388601 -0.110418  0.914766
			 0.256575  0.008808  0.966484
			 0.094564  0.020495  0.995308
			 0.906343 -0.331995  0.261385
			 0.896377 -0.426334  0.121441