<?xml version="1.0"?>
<VTKFile type="PolyData" version="0.1" byte_order="LittleEndian" compressor="vtkZLibDataCompressor">
	<PolyData>
		<Piece NumberOfPoints="9216" NumberOfVerts="0" NumberOfLines="0" NumberOfStrips="0" NumberOfPolys="18440">
		<PointData Normals="Normals">
		<DataArray type="Float32" Name="Normals" NumberOfComponents="3" format="ascii">
			 0.336016  0.939811 -0.062034
			 0.630358  0.766529 -0.122809
			 0.497283  0.800078 -0.335536
			 0.427451  0.894380  0.131797
			 0.691226  0.704117  0.162562
			 0.200821  0.937115 -0.285458
			 0.045096  0.996972 -0.063349
			 0.093230  0.993987  0.057430
			 0.772604  0.622408 -0.125268
			 0.334100  0.842601 -0.422375
			 0.515467  0.818364 -0.254114
			 0.427583  0.835213  0.345821
			 0.743374  0.607227  0.280484
			 0.107064  0.962916  0.247649
			 0.793953  0.581418  0.177742
			 0.748142  0.493220  0.443867
			 0.148677  0.617225 -0.772611
			-0.057488  0.897662 -0.436919
			-0.465671  0.826863 -0.315355
			-0.195612  0.972754 -0.124439
			-0.162629  0.986684 -0.002666
			-0.096876  0.980527  0.170826
			 0.905828  0.421294 -0.044580
			 0.725026  0.671853 -0.151499
			 0.913944  0.392014  0.105035
			 0.028994  0.935003 -0.353452
			 0.391532  0.910818 -0.130816
			 0.673197  0.728384 -0.127520
			 0.679665  0.551286  0.483879
			 0.374656  0.629451  0.680753
			 0.116715  0.747732  0.653663
			 0.780607  0.292494  0.552359
			-0.049112  0.790589  0.610374
			 0.861069  0.401634  0.311850
			 0.785984  0.280457  0.550975
			 0.656716  0.122679  0.744093
			 0.103577  0.161197 -0.981472
			-0.320358  0.750930 -0.577472
			-0.459883  0.528540 -0.713549
			-0.487550 -0.097921 -0.867587
			-0.647133  0.315131 -0.694199
			-0.802834  0.395777 -0.445890
			-0.808222  0.365199 -0.461959
			-0.686327  0.657655 -0.310556
			-0.594289  0.794851 -0.122607
			-0.528253  0.844844 -0.084773
			-0.196724  0.844203  0.498619
			 0.843373  0.522550 -0.125155
			 0.968608  0.233195 -0.086131
			 0.992286  0.123605  0.009494
			 0.971061  0.163459  0.174134
			 0.940325  0.147543  0.306625
			 0.253074  0.932607 -0.257291
			-0.141071  0.914472 -0.379262
			-0.384518  0.863481 -0.326414
			 0.661774  0.736650 -0.139288
			 0.849313  0.508998 -0.139956
			 0.554334  0.326972  0.765378
			 0.212158  0.330217  0.919753
			-0.011494  0.361577  0.932272
			 0.495978  0.092605  0.863383
			-0.118235  0.386823  0.914543
			 0.781703 -0.002792  0.623644
			 0.430546 -0.061536  0.900469
			 0.587489 -0.221916  0.778209
			-0.533044  0.739009 -0.411983
			-0.752757  0.428655 -0.499612
			-0.873000  0.261871 -0.411453
			-0.856188  0.304603 -0.417324
			-0.867479  0.412825 -0.277590
			-0.840885  0.502141 -0.201906
			-0.897152  0.344429 -0.276562
			-0.639769  0.755669  0.140216
			-0.222962  0.444080  0.867802
			 0.954444  0.278117 -0.108110
			 0.999274 -0.027079 -0.026807
			 0.994373 -0.102827  0.025455
			 0.980533 -0.099505  0.169272
			 0.938009 -0.117935  0.325931
			 0.558610  0.725326 -0.402314
			 0.231271  0.796697 -0.558379
			-0.247468  0.864938 -0.436625
			-0.440519  0.855845 -0.271060
			 0.763089  0.544609 -0.347989
			 0.151828  0.066134  0.986192
			-0.041158  0.097236  0.994410
			-0.259689  0.098894  0.960615
			 0.764626 -0.262776  0.588469
			 0.153025 -0.040207  0.987404
			 0.356730 -0.189752  0.914734
			 0.565565 -0.289697  0.772147
			 0.731242 -0.343528  0.589299
			 0.804313 -0.358064  0.474205
			-0.574871  0.783029 -0.237462
			-0.646317  0.694651 -0.315809
			-0.695499  0.634526 -0.337131
			-0.748115  0.559575 -0.356651
			-0.879998  0.244573 -0.407170
			-0.831143  0.411673 -0.373800
			-0.809799  0.493514 -0.317284
			-0.846571  0.525908 -0.082081
			-0.989130  0.113319  0.093701
			-0.858289  0.182924  0.479457
			-0.647307  0.391026  0.654288
			-0.598120 -0.041643  0.800324
			 0.933126  0.222419 -0.282499
			 0.995616 -0.034689 -0.086865
			 0.963009 -0.268819 -0.018705
			 0.958410 -0.275810  0.073341
			 0.933154 -0.288011  0.215112
			 0.496090  0.744885 -0.446140
			-0.071071  0.925975 -0.370836
			-0.312191  0.939593 -0.140363
			-0.552387  0.824784 -0.120830
			 0.796714  0.406876 -0.446876
			-0.010869  0.016508  0.999805
			-0.108287  0.036443  0.993451
			-0.267386  0.232091  0.935221
			 0.138922 -0.140041  0.980352
			 0.338198 -0.338383  0.878134
			 0.195517 -0.282353  0.939175
			 0.502799 -0.362414  0.784760
			 0.871730 -0.350269  0.342635
			 0.880875 -0.313345  0.354788
			 0.745927 -0.297751  0.595767
			-0.629604  0.754448 -0.185491
			-0.603619  0.760184 -0.240342
			-0.616984  0.739928 -0.268024
			-0.625427  0.712453 -0.318200
			-0.670397  0.683228 -0.289426
			-0.677387  0.683196 -0.272745
			-0.650948  0.740175 -0.168548
			-0.558999  0.682047  0.471521
			 0.940013 -0.145521 -0.308542
			 0.894876  0.034512 -0.444979
			 0.942854 -0.301812 -0.141196
			 0.940195 -0.335146 -0.060909
			 0.946397 -0.320634  0.039081
			 0.930707 -0.325041  0.167726
			 0.843292  0.320091 -0.431741
			 0.599872  0.669145 -0.438632
			 0.217491  0.938137 -0.269436
			-0.260414  0.961205 -0.090938
			-0.547118  0.832742 -0.084871
			-0.662885  0.740256 -0.112273
			 0.043233 -0.122248  0.991558
			-0.042435 -0.025109  0.998784
			-0.201942  0.408948  0.889933
			-0.060329  0.087045  0.994376
			 0.277718 -0.370862  0.886191
			 0.152620 -0.174500  0.972757
			 0.283215 -0.270199  0.920207
			 0.558854 -0.257996  0.788112
			 0.356163 -0.274345  0.893243
			 0.957595 -0.243060  0.154703
			 0.900949 -0.157769  0.404227
			 0.740966 -0.188732  0.644476
			-0.692547  0.704785 -0.153810
			-0.691823  0.691479 -0.207937
			-0.678747  0.692566 -0.244244
			-0.618174  0.726143 -0.300960
			-0.559714  0.780820 -0.277562
			-0.567196  0.787847 -0.239969
			-0.537205  0.806228 -0.247805
			-0.480723  0.850132 -0.214897
			-0.380104  0.874305  0.301847
			 0.892892 -0.205769 -0.400503
			 0.900815 -0.319937 -0.293552
			 0.925312 -0.077905 -0.371118
			 0.917620 -0.348379 -0.191325
			 0.967237 -0.222469 -0.122313
			 0.977157 -0.212484  0.003934
			 0.787826  0.354957 -0.503324
			 0.894486  0.000977 -0.447094
			 0.690543  0.522190 -0.500467
			 0.343581  0.861814 -0.373133
			-0.163313  0.879812 -0.446384
			-0.526243  0.814943 -0.242767
			-0.678292  0.719422 -0.149505
			-0.712472  0.683423 -0.159110
			 0.042550 -0.059557  0.997318
			-0.298706  0.420776  0.856576
			-0.087279  0.131588  0.987455
			 0.003665 -0.019335  0.999806
			 0.291563 -0.174249  0.940547
			 0.152634 -0.107097  0.982463
			 0.360752 -0.172637  0.916545
			 0.632494 -0.109270  0.766819
			 0.449408 -0.104500  0.887193
			 0.987157 -0.080424  0.138031
			 0.782645  0.001225  0.622468
			 0.930158  0.131332  0.342867
			-0.694047  0.706338 -0.139230
			-0.708310  0.685650 -0.167873
			-0.715843  0.663150 -0.218634
			-0.701611  0.656786 -0.276358
			-0.648574  0.652274 -0.392290
			-0.564168  0.737777 -0.370674
			-0.494213  0.831150 -0.254838
			-0.464258  0.847867 -0.256099
			-0.378942  0.890229 -0.252774
			-0.481602  0.825087  0.295450
			 0.927140 -0.251291 -0.277965
			 0.941309 -0.159720 -0.297368
			 0.952942 -0.200684 -0.227215
			 0.979014 -0.127055 -0.159339
			 0.996024 -0.085658 -0.024457
			 0.779322  0.117595 -0.615490
			 0.852983 -0.226252 -0.470350
			 0.761219 -0.188296 -0.620556
			 0.622340  0.387171 -0.680288
			 0.712918  0.054012 -0.699164
			 0.271441  0.566891 -0.777788
			-0.094270  0.724506 -0.682792
			-0.547016  0.781233 -0.300746
			-0.725610  0.656659 -0.205644
			-0.669991  0.719317 -0.183564
			-0.688344  0.683038 -0.244215
			-0.716884  0.676238  0.169646
			-0.239084  0.075357  0.968070
			-0.400176  0.218117  0.890104
			-0.111136 -0.028914  0.993384
			 0.036274 -0.052992  0.997936
			 0.310635 -0.133670  0.941083
			 0.194492 -0.112483  0.974433
			 0.340577 -0.108704  0.933911
			 0.612666  0.083664  0.785901
			 0.364893  0.042054  0.930099
			 0.994314  0.092867  0.052110
			 0.762523  0.213877  0.610586
			 0.938383  0.326531  0.113206
			 0.785912  0.358822  0.503576
			-0.670302  0.730382 -0.131291
			-0.686155  0.714994 -0.134070
			-0.676053  0.705705 -0.211971
			-0.650750  0.696024 -0.303439
			-0.604682  0.655707 -0.452115
			-0.612920  0.657510 -0.438190
			-0.577169  0.675462 -0.458941
			-0.557267  0.765480 -0.321704
			-0.604306  0.742989 -0.287718
			-0.579349  0.780203 -0.235876
			 0.880573 -0.284601 -0.378938
			 0.909590 -0.225183 -0.349197
			 0.965057  0.003457 -0.262019
			 0.993579  0.028584 -0.109470
			 0.722244 -0.330690 -0.607461
			 0.778520 -0.342918 -0.525655
			 0.707092 -0.190417 -0.681001
			 0.735698 -0.321533 -0.596125
			 0.708346 -0.337275 -0.620074
			 0.541465  0.230590 -0.808482
			 0.626977 -0.063672 -0.776431
			 0.176123  0.677552 -0.714076
			-0.398451  0.694926 -0.598593
			-0.748245  0.593373 -0.296711
			-0.636261  0.750393 -0.179118
			-0.475985  0.645508 -0.597292
			-0.557822  0.801713 -0.214686
			-0.923109  0.360542 -0.133713
			-0.731603  0.618974  0.285708
			-0.384353 -0.077979  0.919887
			-0.606130 -0.006798  0.795337
			-0.719419 -0.337993  0.606793
			-0.136667 -0.041967  0.989728
			 0.051661 -0.077007  0.995691
			 0.287829 -0.168501  0.942742
			 0.203232 -0.174197  0.963510
			 0.232845 -0.118114  0.965315
			 0.613458  0.220813  0.758229
			 0.422369  0.265363  0.866710
			 0.167698  0.030176  0.985376
			 0.961802  0.258302 -0.090644
			 0.923432  0.380939 -0.046465
			 0.873867  0.436914  0.213220
			 0.679637  0.436572  0.589490
			-0.638534  0.761012 -0.114613
			-0.680416  0.724157 -0.112391
			-0.651062  0.728262 -0.213899
			-0.574155  0.773481 -0.268465
			-0.549496  0.759749 -0.347613
			-0.547675  0.716253 -0.432473
			-0.623833  0.670271 -0.401958
			-0.604976  0.670020 -0.430206
			-0.665384  0.704818 -0.245960
			 0.836008 -0.314999 -0.449295
			 0.853593 -0.315122 -0.414823
			 0.891478 -0.192633 -0.410072
			 0.917869 -0.078082 -0.389128
			 0.919364  0.347234 -0.184929
			 0.929774  0.194234 -0.312719
			 0.966490  0.192243 -0.170116
			 0.778063 -0.236690 -0.581890
			 0.866373 -0.187015 -0.463059
			 0.680600 -0.244938 -0.690499
			 0.750200 -0.252227 -0.611213
			 0.754549 -0.285744 -0.590767
			 0.540121  0.167786 -0.824692
			 0.638589 -0.048767 -0.768001
			 0.677494 -0.146497 -0.720791
			 0.151157  0.292240 -0.944324
			-0.454956  0.378942 -0.805865
			 0.014663  0.143317 -0.989568
			 0.011046  0.780104 -0.625553
			-0.438405  0.852767 -0.283884
			 0.326792  0.307581 -0.893645
			-0.584645  0.797340 -0.149797
			-0.974057 -0.186658  0.127949
			-0.840317  0.537980  0.066665
			-0.859751  0.279702  0.427310
			-0.713331  0.035367  0.699934
			-0.358212 -0.025273  0.933298
			-0.137475 -0.057262  0.988849
			 0.031674 -0.129782  0.991037
			 0.262913 -0.192057  0.945511
			 0.224424 -0.206362  0.952391
			 0.100643 -0.151698  0.983290
			 0.129360 -0.036915  0.990910
			 0.212272 -0.075778  0.974268
			 0.344252  0.426497  0.836415
			 0.127601  0.179017  0.975536
			 0.040134  0.070475  0.996706
			 0.918464  0.377313 -0.118573
			 0.913043  0.387166 -0.128280
			 0.896921  0.431625 -0.096084
			 0.896977  0.438238  0.058144
			 0.778838  0.485267  0.397402
			-0.685782  0.721389 -0.096440
			-0.695844  0.714019 -0.077322
			-0.684009  0.714031 -0.149306
			-0.654981  0.706813 -0.267236
			-0.600689  0.723369 -0.340456
			-0.537409  0.768451 -0.347382
			-0.567317  0.717048 -0.404960
			-0.588986  0.706939 -0.391577
			-0.715176  0.669177 -0.201808
			 0.930656  0.044146 -0.363223
			 0.861488  0.464152 -0.205915
			 0.800849  0.595470 -0.063697
			 0.868208  0.489849 -0.079138
			 0.885344  0.363395 -0.290016
			 0.784712 -0.154214 -0.600371
			 0.828347 -0.000599 -0.560215
			 0.888458  0.221253 -0.402106
			 0.793411 -0.102461 -0.600001
			 0.774760 -0.154721 -0.613032
			 0.429666  0.014162 -0.902877
			 0.505675 -0.010877 -0.862656
			 0.654147 -0.032682 -0.755661
			 0.448434  0.327744 -0.831559
			 0.163557  0.450763 -0.877532
			-0.326391  0.715886 -0.617233
			-0.501596  0.827801 -0.251292
			 0.665940  0.108265 -0.738108
			-0.674096  0.702219 -0.229091
			-0.798226  0.599997 -0.053286
			-0.857584  0.398455  0.325244
			-0.739671  0.155545  0.654747
			-0.533196 -0.004190  0.845981
			-0.341937 -0.079455  0.936358
			-0.161219 -0.147460  0.975840
			 0.233637 -0.089061  0.968237
			-0.239692 -0.142600  0.960319
			 0.207536  0.004710  0.978216
			-0.067960  0.035067  0.997072
			 0.130915  0.048372  0.990213
			 0.249138  0.139304  0.958397
			 0.234861  0.100600  0.966809
			 0.068989  0.589182  0.805050
			 0.551841  0.686085  0.474088
			-0.100990  0.283658  0.953593
			-0.023348  0.099331  0.994780
			 0.901273  0.423819 -0.089918
			 0.893460  0.444235 -0.066213
			 0.888939  0.447888 -0.095833
			 0.838667  0.528820 -0.130338
			 0.844419  0.533991 -0.042540
			 0.811641  0.563541  0.153818
			-0.772807  0.622852 -0.121758
			-0.757074  0.647864 -0.084323
			-0.723584  0.679143 -0.123251
			-0.670820  0.701324 -0.241134
			-0.618709  0.717642 -0.319670
			-0.655106  0.664151 -0.360194
			-0.648535  0.679593 -0.342864
			-0.676610  0.644698 -0.355759
			-0.727838  0.596417 -0.338436
			 0.770492  0.618020 -0.156188
			 0.648500  0.761036  0.016503
			 0.792351  0.593218  0.142385
			 0.871030  0.491024  0.014227
			 0.812165  0.530485 -0.242846
			 0.792642  0.060937 -0.606634
			 0.782361  0.326943 -0.530114
			 0.734298  0.597607 -0.321980
			 0.821632  0.005836 -0.569989
			 0.793959  0.175895 -0.581971
			 0.783880  0.016173 -0.620702
			 0.565739  0.170109 -0.806847
			 0.233339  0.270814 -0.933923
			-0.314383  0.422156 -0.850263
			-0.668593  0.605188 -0.432124
			 0.732635  0.151638 -0.663515
			-0.729408  0.623812 -0.280752
			-0.585793  0.600166 -0.544653
			-0.720148  0.558560 -0.411581
			-0.808517  0.576127 -0.119906
			-0.822862  0.503061  0.264250
			-0.775142  0.391236  0.496074
			-0.636617 -0.053756  0.769305
			-0.707768  0.014308  0.706300
			-0.515775 -0.141888  0.844893
			-0.384296 -0.176638  0.906154
			-0.420023 -0.168625  0.891710
			-0.352050 -0.041553  0.935059
			 0.159061  0.129021  0.978802
			-0.288268  0.117545  0.950308
			 0.113434  0.134005  0.984467
			-0.031187  0.100639  0.994434
			-0.189066  0.158861  0.969029
			 0.216028  0.141754  0.966042
			 0.299882  0.207959  0.931034
			 0.229100  0.199520  0.952735
			 0.081220  0.769678  0.633244
			-0.404171  0.492392  0.770841
			 0.702482  0.696301  0.147257
			 0.446017  0.853566  0.269248
			-0.353729  0.152099  0.922899
			 0.003421  0.101176  0.994863
			 0.910671  0.409558 -0.054229
			 0.852597  0.492738 -0.174036
			 0.770685  0.605695 -0.197933
			 0.770881  0.626912 -0.112801
			 0.770404  0.637379  0.015036
			-0.827362  0.532095 -0.179854
			-0.811053  0.570449 -0.129541
			-0.770680  0.621513 -0.140623
			-0.737045  0.650968 -0.181673
			-0.734673  0.621234 -0.272624
			-0.771235  0.533165 -0.347753
			-0.779327  0.538696 -0.320088
			-0.805243  0.496029 -0.324867
			 0.622940  0.777870 -0.082849
			 0.506379  0.853459  0.123241
			 0.566043  0.802806  0.187345
			 0.913575  0.312005  0.260831
			 0.761024  0.558772  0.329570
			 0.931085  0.358814  0.065823
			 0.617069  0.649483 -0.444295
			 0.717757  0.454836 -0.527209
			 0.395815  0.902948 -0.167378
			 0.784844  0.279274 -0.553196
			 0.763154  0.255351 -0.593626
			 0.583497  0.235464 -0.777231
			 0.430264  0.304928 -0.849642
			-0.109550  0.518908 -0.847781
			 0.655212  0.407357 -0.636206
			-0.718913  0.578796 -0.384913
			-0.457270  0.715382 -0.528329
			-0.884491  0.360230 -0.296498
			-0.845581  0.258874 -0.466880
			-0.863786  0.312571 -0.395188
			-0.958829  0.262040  0.109464
			-0.845716  0.195231  0.496638
			-0.586051 -0.123354  0.800830
			-0.860093  0.038741  0.508664
			-0.673945 -0.037366  0.737836
			-0.508337 -0.191658  0.839560
			-0.476016 -0.083486  0.875465
			-0.415914  0.111674  0.902521
			-0.333325  0.186518  0.924178
			 0.233818  0.166911  0.957846
			 0.231249  0.175532  0.956929
			 0.084793  0.209657  0.974091
			-0.044450  0.243641  0.968846
			-0.329536  0.244609  0.911906
			-0.102127  0.321559  0.941366
			-0.228493  0.379162  0.896676
			 0.249161  0.170237  0.953382
			 0.305313  0.170581  0.936849
			-0.260272  0.855507  0.447624
			-0.707547  0.144147  0.691808
			-0.769821  0.377910  0.514354
			 0.720072  0.693119  0.032891
			 0.658283  0.749475  0.070360
			 0.261440  0.960274  0.097587
			 0.596065  0.802897  0.007962
			-0.524106 -0.041197  0.850656
			-0.018498 -0.022519  0.999575
			 0.941207  0.293938 -0.166521
			 0.848222  0.398637 -0.348725
			 0.769877  0.576207 -0.274364
			 0.748087  0.645958 -0.152004
			 0.707490  0.681208 -0.188184
			 0.750104  0.658738 -0.058375
			-0.726460  0.639010 -0.252830
			-0.804305  0.571377 -0.163162
			-0.810338  0.559380 -0.174486
			-0.804831  0.566136 -0.178150
			-0.777907  0.604007 -0.173310
			-0.761670  0.615909 -0.201286
			-0.784623  0.572625 -0.237629
			-0.856559  0.457336 -0.239063
			 0.366823  0.918459  0.147902
			 0.387059  0.871699  0.300542
			 0.439314  0.858099  0.265838
			 0.568843  0.743232  0.352169
			 0.893744  0.218319  0.391866
			 0.969706  0.085727  0.228738
			 0.979334  0.189724  0.070065
			 0.812633  0.434359  0.388536
			 0.538925  0.748433 -0.386532
			 0.654288  0.619304 -0.434016
			 0.140300  0.984569  0.104596
			 0.075529  0.996205 -0.043244
			 0.309486  0.900230 -0.306276
			 0.629142  0.578770 -0.518851
			 0.473442  0.398064 -0.785747
			 0.440595  0.186842 -0.878047
			 0.165585  0.610260 -0.774703
			 0.454416  0.214727 -0.864522
			 0.334279  0.675697 -0.657032
			-0.156569  0.667806 -0.727682
			-0.403427  0.759911 -0.509687
			-0.949358  0.132799 -0.284751
			-0.910295  0.122444 -0.395437
			-0.807045  0.552774 -0.207653
			-0.869633  0.408896 -0.276661
			-0.982934  0.138494  0.121083
			-0.604810 -0.032568  0.795704
			-0.525837  0.013226  0.850482
			-0.792441  0.032247  0.609095
			-0.972845  0.211464  0.094103
			-0.529248  0.162787  0.832705
			-0.454925  0.245581  0.855999
			 0.300934  0.173605  0.937710
			 0.349188  0.160202  0.923257
			 0.355841  0.369556  0.858374
			 0.109730  0.512513  0.851640
			-0.023266  0.564288  0.825250
			-0.403388  0.305116  0.862660
			-0.078572  0.617789  0.782408
			-0.391544  0.457087  0.798602
			-0.116830  0.687125  0.717084
			-0.288251  0.658301  0.695378
			 0.270926  0.123674  0.954622
			-0.645266  0.639444  0.418023
			-0.311187  0.892215  0.327284
			-0.748908 -0.175723  0.638951
			-0.847292 -0.036274  0.529887
			-0.853900  0.283776  0.436264
			-0.920745 -0.041686  0.387931
			 0.678341  0.733846 -0.036381
			 0.655937  0.754509  0.021523
			 0.641340  0.767194  0.009785
			 0.589665  0.805494 -0.058938
			 0.329662  0.940058  0.087261
			 0.643466  0.764145 -0.045109
			-0.495781 -0.253777  0.830541
			-0.207291 -0.427892  0.879738
			 0.272541 -0.198696  0.941404
			 0.380394 -0.011667  0.924751
			 0.897293  0.161822 -0.410705
			 0.987451 -0.039158 -0.152996
			 0.764993  0.207720 -0.609621
			 0.728257  0.537194 -0.425517
			 0.678508  0.657425 -0.327748
			 0.527283  0.794262 -0.301862
			 0.499795  0.859219 -0.109307
			-0.628073  0.766630 -0.133427
			-0.751680  0.654718 -0.079507
			-0.815327  0.562994 -0.135202
			-0.834238  0.518895 -0.186533
			-0.822238  0.531442 -0.203701
			-0.729283  0.639974 -0.242032
			-0.731250  0.663720 -0.157318
			-0.728503  0.675898 -0.111562
			 0.066954  0.882053  0.466369
			 0.321640  0.824628  0.465334
			 0.449138  0.694859  0.561645
			 0.735670  0.453314  0.503286
			 0.895959  0.133043  0.423741
			 0.932482 -0.041001  0.358883
			 0.965482 -0.178832  0.189376
			-0.301342  0.924761  0.232403
			-0.109675  0.978563 -0.174313
			-0.148040  0.887183 -0.437024
			 0.198798  0.397477 -0.895819
			 0.439240  0.017001 -0.898209
			 0.164321  0.193581 -0.967225
			 0.352190  0.047583 -0.934718
			 0.243703  0.354806 -0.902620
			 0.359134  0.100987 -0.927806
			-0.267255  0.591889 -0.760423
			-0.018632  0.407515 -0.913009
			-0.014146  0.727903 -0.685534
			-0.505770  0.823869 -0.255805
			 0.280058  0.397590 -0.873779
			-0.923607  0.249485 -0.291045
			-0.648099  0.755444 -0.096293
			-0.745419  0.657845 -0.107654
			-0.828003  0.538871 -0.155013
			-0.704228 -0.008274  0.709926
			-0.610272  0.062366  0.789733
			-0.870557  0.073653  0.486525
			-0.909150  0.399737  0.116862
			-0.643050  0.175450  0.745456
			-0.623547  0.229635  0.747300
			-0.546045  0.408084  0.731644
			 0.607706  0.140062  0.781714
			 0.670014  0.333866  0.663035
			 0.360074  0.640642  0.678177
			 0.093659  0.725640  0.681671
			-0.007143  0.763663  0.645575
			-0.059368  0.798006  0.599718
			-0.392516  0.525609  0.754762
			-0.133609  0.810737  0.569959
			-0.461184  0.641395  0.613124
			-0.386863  0.785259  0.483430
			-0.736701  0.497670  0.457817
			-0.388686  0.847102  0.362412
			-0.869438 -0.293779  0.397204
			-0.650540 -0.406038  0.641818
			-0.911831  0.074737  0.403706
			-0.941604 -0.141426  0.305583
			 0.491856  0.870676 -0.001165
			 0.523831  0.851152  0.033786
			 0.627814  0.777883  0.027354
			 0.694991  0.718947 -0.010124
			 0.204329  0.922566  0.327294
			 0.675178  0.729860  0.106954
			-0.563156 -0.456180  0.689024
			-0.659437 -0.512612  0.549883
			-0.252091 -0.630355  0.734236
			 0.168095 -0.542392  0.823137
			 0.360499 -0.438212  0.823414
			 0.609988 -0.189500  0.769419
			 0.822657 -0.076313 -0.563393
			 0.926057 -0.376027 -0.031973
			 0.797296 -0.340817 -0.498160
			 0.423994  0.606655 -0.672457
			 0.497777 -0.101754 -0.861315
			 0.163777  0.947189 -0.275697
			 0.202864  0.978358 -0.040752
			-0.526794  0.845008 -0.091921
			-0.639936  0.767824  0.030473
			-0.781616  0.622808  0.034445
			-0.840251  0.519136 -0.156451
			-0.804371  0.518176 -0.290657
			-0.741424  0.559288 -0.370792
			-0.633313  0.744865 -0.209981
			-0.612060  0.787397 -0.073405
			 0.194176  0.671718  0.714906
			-0.152791  0.577057  0.802284
			-0.367792  0.666983  0.647968
			 0.445550  0.527188  0.723573
			 0.657940  0.302110  0.689815
			 0.819989  0.084116  0.566164
			 0.890041 -0.140771  0.433601
			 0.928497 -0.194998  0.316020
			 0.928266 -0.231225  0.291304
			 0.905072 -0.350628  0.240635
			-0.636051  0.453015  0.624673
			-0.868160  0.418114  0.267356
			-0.485061  0.858748 -0.165131
			-0.597531  0.706953 -0.378383
			-0.179552  0.335769 -0.924673
			 0.436776 -0.001769 -0.899569
			 0.053458  0.134892 -0.989417
			 0.434328 -0.020501 -0.900521
			 0.270153  0.010386 -0.962761
			 0.491862  0.012273 -0.870587
			-0.671961  0.456151 -0.583434
			-0.488650  0.430516 -0.758865
			 0.456426  0.205915 -0.865606
			 0.015262  0.493663 -0.869519
			-0.266176  0.859551 -0.436259
			-0.807430  0.587691 -0.051728
			-0.849801  0.526967 -0.012022
			-0.774505  0.062406  0.629482
			-0.949389  0.026543  0.312978
			-0.894607 -0.033959  0.445563
			-0.993963  0.060982  0.091210
			-0.758018  0.172150  0.629105
			-0.759483  0.271925  0.590967
			-0.735700  0.418791  0.532316
			-0.679476  0.545726  0.490403
			 0.720495 -0.143337  0.678485
			 0.734657 -0.008743  0.678382
			 0.651976  0.390539  0.649929
			 0.760962 -0.017451  0.648562
			 0.392341  0.518285  0.759901
			 0.193085  0.644677  0.739668
			 0.070256  0.722817  0.687459
			-0.007527  0.774834  0.632120
			-0.094061  0.776774  0.622715
			-0.259358  0.761767  0.593670
			-0.593025  0.688853  0.416896
			-0.639713  0.684016  0.350557
			-0.546136  0.679885  0.489379
			-0.729252  0.573310  0.373507
			-0.956938  0.101226  0.272071
			-0.220514  0.860514  0.459227
			-0.776157 -0.420597  0.469764
			-0.903112 -0.345105  0.255522
			-0.963360 -0.198385  0.180499
			 0.289544  0.954086  0.076714
			 0.435394  0.889619  0.137876
			 0.717015  0.694448  0.060258
			 0.634136  0.747432  0.198034
			 0.734826  0.674714  0.069217
			 0.473349  0.817286  0.328611
			-0.617185 -0.604059  0.504178
			-0.823580 -0.498648  0.270309
			 0.029442 -0.585093  0.810432
			-0.384637 -0.563281  0.731279
			 0.345570 -0.551832  0.758988
			 0.582039 -0.552782  0.596375
			 0.751757 -0.364358  0.549641
			 0.875371 -0.465473  0.130613
			 0.821161 -0.520164 -0.234783
			 0.564845 -0.489737 -0.664160
			-0.010777  0.753497 -0.657363
			-0.055796  0.257548 -0.964653
			 0.126347  0.115175 -0.985277
			 0.095892 -0.274526 -0.956786
			 0.278878 -0.371328 -0.885631
			-0.199508  0.974710 -0.100679
			-0.299683  0.830295 -0.469895
			-0.071875  0.989898  0.122216
			-0.394767  0.918771  0.004335
			-0.539026  0.837562  0.089118
			-0.647726  0.724742  0.234947
			-0.761817  0.608082  0.223319
			-0.869061  0.490294 -0.065920
			-0.836208  0.408602 -0.365788
			-0.864071  0.428945 -0.263417
			-0.903231  0.224903 -0.365502
			-0.804451  0.479796 -0.350220
			-0.774772  0.619567 -0.125953
			 0.081593  0.392485  0.916132
			-0.231779  0.316767  0.919748
			-0.468677  0.366492  0.803757
			 0.284565  0.248987  0.925758
			 0.475080  0.182994  0.860705
			 0.693959  0.158802  0.702284
			 0.696699 -0.036888  0.716414
			 0.757821 -0.219428  0.614457
			 0.886237 -0.269583  0.376709
			 0.909848 -0.159496  0.383062
			 0.881182 -0.238971  0.407934
			 0.862932 -0.379295  0.333893
			-0.565557  0.257769  0.783390
			-0.738387  0.143397  0.658955
			-0.839512 -0.039974  0.541869
			-0.896037  0.019997  0.443528
			-0.863184  0.470117  0.184129
			-0.709049  0.691688 -0.137178
			-0.913540  0.360726 -0.187940
			-0.786593  0.614798  0.057405
			-0.553888  0.383881 -0.738812
			-0.330282  0.200543 -0.922332
			-0.001157  0.091759 -0.995781
			 0.394931 -0.072995 -0.915806
			 0.460944 -0.065316 -0.885022
			 0.174033 -0.019897 -0.984539
			 0.493270 -0.064195 -0.867504
			 0.517276 -0.074002 -0.852613
			-0.754590  0.346584 -0.557201
			 0.470700  0.199443 -0.859455
			 0.305246  0.835071 -0.457692
			-0.208436  0.974943 -0.077720
			-0.990949  0.119023 -0.062074
			-0.995934  0.087971 -0.019385
			-0.890258  0.124041  0.438239
			-0.973537 -0.066853  0.218534
			-0.998221 -0.048907  0.034096
			-0.848454  0.326861  0.416278
			-0.826262  0.382774  0.413249
			-0.787876  0.449468  0.420988
			-0.805922  0.484144  0.340727
			-0.798858  0.494327  0.342734
			-0.760297  0.552908  0.340941
			 0.695146 -0.436263  0.571355
			 0.747395 -0.306201  0.589611
			 0.578788  0.165185  0.798573
			 0.622609 -0.052867  0.780746
			 0.755530 -0.191332  0.626551
			 0.361500  0.296985  0.883809
			 0.257918  0.513992  0.818102
			 0.075391  0.683870  0.725699
			-0.062884  0.708200  0.703206
			-0.265634  0.656000  0.706472
			-0.437718  0.593347  0.675531
			-0.753312  0.535141  0.382289
			-0.658050  0.509614  0.554313
			-0.535627  0.736632  0.412889
			-0.880706  0.385901  0.274660
			-0.992320 -0.103675  0.067471
			-0.991374  0.041152  0.124433
			 0.040306  0.891676  0.450877
			-0.916485 -0.378089  0.130781
			-0.945373 -0.307062  0.109469
			-0.949177 -0.314193  0.018571
			 0.177564  0.963035  0.202572
			 0.368233  0.841088  0.396200
			 0.773818  0.623901  0.109330
			 0.629432  0.685133  0.366618
			 0.767763  0.587999  0.254553
			 0.558386  0.781062  0.279547
			 0.744372  0.664581  0.065134
			 0.816213  0.576942  0.030572
			-0.670069 -0.526592  0.523172
			-0.741088 -0.498578  0.449676
			-0.855505 -0.475949  0.203922
			-0.879558 -0.464444  0.103294
			-0.449692 -0.609397  0.653003
			-0.023255 -0.806104  0.591317
			 0.287165 -0.753056  0.591982
			 0.570499 -0.804941  0.163098
			 0.743053 -0.532358  0.405545
			 0.854142 -0.417197  0.310464
			 0.808679 -0.579210  0.102733
			 0.719166 -0.617948 -0.317710
			 0.264251 -0.556090 -0.787994
			 0.464233 -0.740247 -0.486335
			-0.362660  0.378115 -0.851767
			-0.185037 -0.261843 -0.947206
			-0.072620 -0.224024 -0.971874
			-0.023048 -0.345221 -0.938238
			 0.116908 -0.362687 -0.924549
			 0.222372 -0.420312 -0.879709
			-0.676473  0.711615 -0.189708
			-0.495933  0.864231  0.084587
			-0.727590  0.401779 -0.556045
			-0.396542  0.882244  0.253770
			-0.114684  0.912845  0.391869
			-0.444400  0.868451  0.219776
			-0.615379  0.755689  0.224148
			-0.717976  0.627842  0.300542
			-0.710290  0.614697  0.342980
			-0.828023  0.556365  0.069539
			-0.787678  0.548584  0.280391
			-0.822975  0.565721  0.051687
			-0.842401  0.522695 -0.130959
			-0.890437  0.397822 -0.221042
			-0.955164  0.040521 -0.293290
			-0.932682  0.271323 -0.237672
			-0.960914  0.183612 -0.207197
			-0.968708  0.173205 -0.177779
			-0.008940  0.159903  0.987092
			-0.091622  0.249895  0.963928
			-0.215149  0.358674  0.908331
			-0.413836  0.327294  0.849481
			-0.112870  0.067896  0.991287
			 0.010031  0.070958  0.997429
			 0.562102  0.094843  0.821612
			 0.185578  0.036883  0.981937
			 0.532266 -0.084353  0.842364
			 0.668537 -0.155424  0.727256
			 0.802923 -0.249245  0.541471
			 0.616956 -0.168528  0.768742
			 0.562615 -0.176578  0.807641
			 0.781602 -0.050401  0.621738
			 0.853450 -0.040746  0.519579
			 0.808115 -0.330600  0.487498
			 0.757017 -0.242583  0.606695
			-0.333100  0.387760  0.859469
			-0.457571  0.258759  0.850689
			-0.662166  0.203472  0.721204
			-0.748465  0.065623  0.659920