<?xml version="1.0"?>
<VTKFile type="PolyData" version="0.1" byte_order="LittleEndian" compressor="vtkZLibDataCompressor">
	<PolyData>
		<Piece NumberOfPoints="9806" NumberOfVerts="0" NumberOfLines="0" NumberOfStrips="0" NumberOfPolys="19628">
		<PointData Normals="Normals">
		<DataArray type="Float32" Name="Normals" NumberOfComponents="3" format="ascii">
			 0.017990  0.964727 -0.262639
			 0.391634  0.834707 -0.387154
			-0.174864  0.833222 -0.524560
			 0.122484  0.991222 -0.049770
			 0.539889  0.837244 -0.086850
			-0.435541  0.809661 -0.393387
			-0.443579  0.869304 -0.218057
			 0.146035  0.859911 -0.489109
			 0.696410  0.695003 -0.178844
			-0.468413  0.787642 -0.400261
			 0.224595  0.974323  0.015856
			 0.547875  0.835407  0.043904
			-0.343653  0.919776 -0.189511
			 0.774937  0.631316 -0.030212
			-0.631853  0.702197 -0.328149
			-0.652017  0.708570 -0.269820
			 0.653651  0.656990 -0.375637
			 0.542847  0.514331 -0.663913
			 0.539131  0.574951 -0.615443
			-0.055135  0.889618 -0.453364
			-0.353356  0.894647 -0.273399
			 0.925716  0.363346 -0.105026
			 0.911631  0.408332 -0.046835
			-0.528620  0.823770 -0.204853
			-0.621134  0.740100 -0.257769
			 0.359123  0.924977  0.124295
			 0.615165  0.764265  0.193577
			-0.077002  0.994979 -0.063931
			 0.763956  0.637201  0.101717
			-0.581258  0.717160 -0.384475
			-0.427044  0.854931 -0.294492
			 0.915975  0.398985  0.042441
			-0.647755  0.693839 -0.314645
			 0.861806  0.199128 -0.466518
			 0.754044  0.186660 -0.629743
			 0.255709  0.685798 -0.681391
			 0.772708  0.205832 -0.600463
			 0.497529  0.497463 -0.710630
			-0.156175  0.772683 -0.615280
			-0.459031  0.825696 -0.327898
			 0.935557  0.146384 -0.321411
			 0.956837  0.278336 -0.083623
			 0.959619  0.278304  0.040978
			-0.543269  0.813268 -0.208456
			-0.588436  0.790584 -0.169467
			-0.607702  0.762569 -0.221779
			 0.435567  0.843466  0.314398
			 0.698798  0.661775  0.271544
			 0.084359  0.989899  0.113947
			 0.736799  0.619621  0.270549
			 0.718953  0.545819  0.430336
			-0.225787  0.970461 -0.085001
			 0.896845  0.406982  0.173304
			-0.578257  0.693448 -0.429824
			-0.622372  0.644770 -0.443761
			-0.601087  0.672403 -0.431935
			-0.551183  0.785950 -0.280144
			 0.956625  0.239834  0.165373
			-0.610991  0.711339 -0.347400
			 0.859634  0.034670 -0.509733
			 0.839785  0.072669 -0.538034
			 0.675531  0.355765 -0.645824
			 0.814330 -0.005846 -0.580373
			 0.785166  0.076505 -0.614541
			 0.853239  0.058817 -0.518193
			 0.173601  0.714381 -0.677881
			-0.438675  0.825270 -0.355660
			 0.878653  0.120920 -0.461895
			 0.864009  0.078890 -0.497258
			 0.910492  0.298122 -0.286580
			 0.928067  0.352740  0.119441
			 0.962030  0.175374  0.209147
			-0.649766  0.730821 -0.209058
			-0.714683  0.686447 -0.134232
			-0.717797  0.671180 -0.185162
			-0.673722  0.663441 -0.325490
			 0.673575  0.622504  0.398479
			 0.564388  0.625005  0.539291
			 0.329035  0.883224  0.334141
			 0.816436  0.390070  0.425767
			-0.035527  0.995951  0.082579
			 0.820994  0.449481  0.352044
			 0.778966  0.353561  0.517886
			 0.756912  0.277116  0.591854
			-0.450372  0.874503 -0.180027
			 0.914132  0.240754  0.326190
			-0.615884  0.653654 -0.439798
			-0.686235  0.621790 -0.377437
			-0.670086  0.598433 -0.439162
			-0.699923  0.645471 -0.305738
			 0.928153  0.138321  0.345541
			 0.546188  0.294385 -0.784230
			 0.773541 -0.225871 -0.592129
			 0.736013 -0.214596 -0.642055
			 0.837931 -0.094403 -0.537550
			 0.652513 -0.008200 -0.757734
			 0.835675  0.018113 -0.548926
			 0.119773  0.444878 -0.887546
			-0.269181  0.744051 -0.611498
			-0.545397  0.719337 -0.430228
			-0.605470  0.731109 -0.314460
			 0.825498  0.059688 -0.561241
			 0.843917  0.235545 -0.481998
			 0.920105  0.387130 -0.059480
			 0.914506  0.253291  0.315471
			 0.934062  0.089603  0.345687
			 0.927244  0.061523  0.369369
			-0.744240  0.631268 -0.218191
			-0.797369  0.594214 -0.105418
			-0.798330  0.581909 -0.155083
			-0.769760  0.587573 -0.249454
			-0.670070  0.624294 -0.401576
			-0.737439  0.562752 -0.373488
			-0.698050  0.606647 -0.380403
			 0.708273  0.430276  0.559653
			 0.553023  0.709437  0.436881
			 0.751081  0.434060  0.497462
			 0.756530  0.282508  0.589790
			 0.424616  0.817815  0.388433
			 0.233293  0.933632  0.271854
			-0.192047  0.980824  0.033193
			 0.821847  0.172810  0.542866
			 0.767403  0.138138  0.626107
			 0.754373  0.119634  0.645452
			-0.662075  0.665245 -0.345117
			-0.572996  0.799435 -0.180500
			-0.683581  0.645285 -0.341063
			 0.835765  0.072622  0.544264
			 0.286411  0.218273 -0.932912
			 0.677315 -0.323375 -0.660813
			 0.693543 -0.335863 -0.637334
			 0.748380 -0.255760 -0.611976
			 0.675229 -0.285685 -0.680037
			 0.653082 -0.423595 -0.627735
			 0.638177 -0.369651 -0.675343
			 0.768019 -0.133846 -0.626284
			 0.595383 -0.071198 -0.800281
			-0.221710  0.544861 -0.808685
			-0.565467  0.664810 -0.488134
			-0.689936  0.658018 -0.301662
			 0.841560 -0.181685 -0.508692
			 0.866980 -0.092975 -0.489593
			 0.966224  0.091594 -0.240878
			 0.980621  0.060688  0.186276
			 0.926079 -0.034795  0.375721
			 0.946547 -0.198350  0.254372
			 0.939361 -0.113332  0.323662
			 0.909819 -0.101110  0.402499
			 0.829903 -0.043626  0.556200
			-0.703340  0.696089 -0.144128
			-0.654975  0.751513 -0.078967
			-0.705278  0.692694 -0.150859
			-0.751218  0.621977 -0.220944
			-0.675050  0.585533 -0.448842
			-0.721387  0.522819 -0.454160
			-0.740141  0.570671 -0.355705
			-0.619135  0.700849 -0.354235
			 0.591247  0.694892  0.409332
			 0.839751  0.295533  0.455498
			 0.809983  0.120476  0.573945
			 0.420372  0.828830  0.369226
			 0.351829  0.856025  0.378731
			 0.047306  0.970666  0.235731
			-0.479081  0.877637  0.015288
			 0.743416  0.043479  0.667414
			 0.757277  0.051181  0.651086
			 0.758485 -0.014853  0.651522
			-0.713043  0.631523 -0.304547
			-0.700462  0.615447 -0.361355
			-0.712053  0.685515 -0.151823
			-0.629191  0.709856 -0.316579
			 0.147244  0.487149 -0.860817
			 0.701954 -0.265767 -0.660778
			 0.572996 -0.399140 -0.715795
			 0.618697 -0.292117 -0.729302
			 0.688455 -0.221718 -0.690558
			 0.589921 -0.368398 -0.718524
			 0.626132 -0.402194 -0.667981
			 0.602834 -0.417321 -0.680025
			 0.612719 -0.491560 -0.618825
			 0.586138 -0.456986 -0.669034
			 0.719402 -0.184576 -0.669621
			 0.369408  0.338098 -0.865579
			 0.591304 -0.139109 -0.794360
			 0.645201 -0.406673 -0.646787
			-0.425736  0.633293 -0.646289
			-0.641711  0.691364 -0.331999
			 0.877733 -0.250594 -0.408397
			 0.908832 -0.302235 -0.287538
			 0.947022 -0.311513 -0.078161
			 0.972185 -0.208056 -0.107564
			 0.961230 -0.171994  0.215533
			 0.943995 -0.328308  0.032985
			 0.939279 -0.299085  0.168233
			 0.894345 -0.277548  0.350876
			 0.815291 -0.209088  0.539984
			 0.802400 -0.317369  0.505402
			 0.738879 -0.253238  0.624442
			-0.580849  0.784684 -0.216533
			-0.511321  0.854695 -0.089706
			-0.481689  0.869484 -0.109419
			-0.537903  0.830020 -0.147405
			-0.610703  0.757863 -0.229534
			-0.683288  0.520747 -0.511800
			-0.593041  0.653945 -0.469743
			-0.635441  0.677756 -0.369948
			-0.572252  0.763258 -0.299943
			 0.662934  0.505511  0.552248
			 0.453549  0.783413  0.424921
			 0.789849  0.109167  0.603508
			 0.813213 -0.029525  0.581217
			 0.796858  0.028025  0.603516
			 0.449324  0.695683  0.560475
			 0.069384  0.902951  0.424106
			-0.395806  0.898226  0.191123
			-0.633505  0.773465 -0.020554
			 0.729500 -0.099642  0.676684
			 0.733423 -0.052310  0.677757
			 0.766839 -0.016758  0.641621
			-0.671674  0.689161 -0.271867
			-0.647376  0.741883 -0.174683
			-0.152296  0.625992 -0.764814
			 0.475151 -0.385962 -0.790737
			 0.497608 -0.473626 -0.726681
			 0.487535 -0.315888 -0.813956
			 0.642747 -0.227672 -0.731466
			 0.632782 -0.459957 -0.622918
			 0.619503 -0.495478 -0.608866
			 0.564249 -0.496118 -0.659917
			 0.578525 -0.587501 -0.565819
			 0.521590 -0.541347 -0.659460
			 0.755061 -0.253997 -0.604457
			 0.199208  0.154120 -0.967762
			 0.452003 -0.244025 -0.857989
			 0.501183 -0.360766 -0.786551
			 0.541121 -0.529280 -0.653491
			-0.541552  0.729911 -0.417075
			 0.874772 -0.342689 -0.342548
			 0.928123 -0.368509 -0.052818
			 0.905841 -0.381342  0.184473
			 0.797632 -0.370082  0.476258
			 0.805562 -0.423022  0.414875
			 0.702844 -0.438900  0.559802
			 0.706276 -0.281635  0.649505
			 0.678915 -0.406926  0.611134
			-0.571214  0.763765 -0.300628
			-0.546349  0.812784 -0.202201
			-0.453396  0.882095 -0.127831
			-0.414912  0.899373 -0.137756
			-0.429589  0.881114 -0.197714
			-0.564321  0.572510 -0.594789
			-0.598145  0.644788 -0.475891
			-0.593749  0.611467 -0.523040
			-0.619906  0.705450 -0.343594
			-0.475457  0.833509 -0.281431
			-0.574165  0.792721 -0.204763
			-0.615762  0.740081 -0.270400
			 0.680500  0.060180  0.730273
			 0.555992  0.497974  0.665503
			 0.758901  0.024091  0.650760
			 0.779337 -0.015133  0.626422
			 0.349954  0.617212  0.704685
			 0.584667  0.238482  0.775430
			 0.562522  0.247073  0.789002
			-0.213536  0.808146  0.548910
			-0.514699  0.816455  0.261698
			-0.618310  0.780070 -0.095833
			-0.549349  0.823330  0.142629
			 0.696414 -0.287090  0.657713
			 0.728281 -0.135416  0.671766
			 0.745407 -0.115693  0.656493
			-0.573839  0.805765 -0.146462
			-0.056233  0.308230 -0.949648
			-0.414970  0.607358 -0.677433
			 0.370892 -0.372654 -0.850628
			 0.391967 -0.381089 -0.837337
			 0.484227 -0.476331 -0.733916
			 0.417314 -0.362871 -0.833171
			 0.428341 -0.178320 -0.885848
			 0.847283 -0.263602 -0.461114
			 0.667661 -0.122877 -0.734255
			 0.573955 -0.565758 -0.592024
			 0.456890 -0.646673 -0.610792
			 0.469246 -0.592326 -0.654949
			 0.140746 -0.071622 -0.987452
			 0.380320 -0.335837 -0.861725
			 0.323401 -0.530672 -0.783453
			 0.320850 -0.667980 -0.671459
			-0.606672  0.563531 -0.560698
			-0.569837  0.675328 -0.468207
			 0.904354 -0.410573 -0.116507
			 0.857176 -0.478849  0.189611
			 0.805594 -0.505353  0.309250
			 0.721725 -0.518458  0.458600
			 0.662275 -0.463516  0.588680
			 0.661673 -0.500130  0.558622
			 0.652369 -0.461858  0.600917
			-0.606745  0.715823 -0.345627
			-0.636444  0.725817 -0.261016
			-0.653870  0.711750 -0.256643
			-0.625077  0.751070 -0.212540
			-0.559151  0.800515 -0.215698
			-0.448893  0.875725 -0.177767
			-0.442353  0.858655 -0.258913
			-0.466505  0.763356 -0.446834
			-0.632689  0.563898 -0.530776
			-0.547297  0.702651 -0.454695
			-0.694395  0.590344 -0.411474
			-0.721393  0.615501 -0.317413
			-0.541598  0.828736 -0.140957
			-0.709344  0.614501 -0.345283
			-0.691341  0.681689 -0.239476
			 0.656807  0.074703  0.750349
			 0.714574  0.085753  0.694284
			 0.740929 -0.049608  0.669749
			 0.186641  0.506812  0.841610
			 0.467611  0.184333  0.864501
			 0.604409  0.099549  0.790430
			 0.627995  0.120664  0.768806
			-0.300518  0.749343  0.590062
			-0.543652  0.838774 -0.030010
			-0.372904  0.821819  0.430761
			-0.477735  0.854204  0.205197
			 0.695410 -0.300901  0.652582
			 0.666187 -0.419453  0.616648
			 0.696128 -0.308689  0.648165
			 0.713725 -0.114025  0.691082
			 0.713733 -0.194602  0.672842
			-0.359794  0.294138 -0.885455
			 0.281126 -0.203684 -0.937807
			 0.509661 -0.424055 -0.748614
			 0.440525 -0.367548 -0.819052
			 0.571457 -0.354522 -0.740102
			 0.274766 -0.155166 -0.948908
			 0.601141  0.007587 -0.799107
			 0.253954  0.018221 -0.967045
			 0.915835 -0.116842 -0.384180
			 0.946618 -0.322345  0.003003
			 0.380861 -0.613595 -0.691698
			 0.524623 -0.428997 -0.735345
			-0.223424  0.116395 -0.967747
			 0.088068 -0.241162 -0.966481
			 0.053176 -0.503514 -0.862349
			 0.107436 -0.447604 -0.887755
			-0.522232  0.483278 -0.702649
			-0.548506  0.661028 -0.512039
			 0.842653 -0.402589  0.357573
			 0.670300 -0.509998  0.539074
			 0.705406 -0.499484  0.502910
			 0.654412 -0.502843  0.564707
			 0.650897 -0.467138  0.598427
			 0.700095 -0.442766  0.560201
			-0.644220  0.715059 -0.271423
			-0.703595  0.667175 -0.244606
			-0.720347  0.651488 -0.238041
			-0.717267  0.651306 -0.247646
			-0.696619  0.638830 -0.326523
			-0.635934  0.734829 -0.235827
			-0.604863  0.770654 -0.200582
			-0.612331  0.731077 -0.300960
			-0.684539  0.623183 -0.378219
			-0.710697  0.624636 -0.323635
			-0.490833  0.868620  0.067686
			-0.665716  0.732764 -0.140990
			-0.772833  0.566819 -0.285386
			-0.744690  0.579455 -0.331163
			-0.826430  0.533167 -0.180958
			 0.661932  0.006228  0.749538
			 0.660953 -0.092215  0.744740
			 0.101429  0.420216  0.901738
			 0.553874  0.050424  0.831072
			 0.434646  0.202596  0.877518
			 0.601434  0.015603  0.798770
			 0.016518  0.625257  0.780244
			-0.300126  0.810111  0.503632
			-0.371770  0.850319  0.372485
			 0.686045 -0.400088  0.607677
			 0.688110 -0.329883  0.646283
			 0.709410 -0.376351  0.595901
			 0.679482 -0.175738  0.712334
			 0.684828 -0.288751  0.669054
			 0.132452 -0.020913 -0.990969
			 0.622783 -0.273575 -0.733006
			 0.449194 -0.230467 -0.863197
			 0.699911 -0.177960 -0.691704
			 0.599553 -0.155002 -0.785182
			 0.072388  0.032199 -0.996857
			 0.191900  0.042666 -0.980487
			 0.415813  0.011010 -0.909384
			 0.928037  0.070143 -0.365824
			 0.454135  0.294297 -0.840923
			 0.007078  0.180083 -0.983626
			 0.972763 -0.155552  0.171860
			 0.466111 -0.343243 -0.815429
			 0.610483 -0.231365 -0.757483
			-0.416259  0.217330 -0.882891
			-0.187169 -0.187542 -0.964259
			-0.219337 -0.360633 -0.906551
			-0.337844 -0.053503 -0.939680
			-0.136720 -0.055773 -0.989038
			 0.180642 -0.099987 -0.978453
			-0.498746  0.373393 -0.782195
			-0.572251  0.647636 -0.503087
			 0.754999 -0.426115  0.498399
			 0.845878 -0.261594  0.464821
			 0.708377 -0.397087  0.583545
			 0.791954 -0.353753  0.497663
			 0.780900 -0.388564  0.489094
			 0.885681 -0.092684  0.454949
			-0.694494  0.646314 -0.316158
			-0.710789  0.673358 -0.203390
			-0.717648  0.658388 -0.226949
			-0.713490  0.648322 -0.265725
			-0.730901  0.606102 -0.313726
			-0.721926  0.604755 -0.336296
			-0.728660  0.647909 -0.221965
			-0.690438  0.676223 -0.256939
			-0.671113  0.685732 -0.281744
			-0.661768  0.687097 -0.299935
			-0.672237  0.691425 -0.264629
			-0.708337  0.651513 -0.271642
			-0.475913  0.833418  0.280930
			-0.911645  0.304964 -0.275501
			-0.714542  0.699551 -0.007625
			-0.770642  0.598151 -0.219834
			-0.758150  0.635516 -0.146041
			-0.795799  0.597307 -0.099642
			 0.631051 -0.053009  0.773928
			 0.670074 -0.157918  0.725301
			 0.589921  0.021096  0.807185
			 0.317524  0.414717  0.852753
			 0.592748  0.042620  0.804260
			 0.467971  0.139884  0.872603
			-0.092700  0.656202  0.748870
			-0.309774  0.709416  0.633064
			 0.800553 -0.235589  0.551011
			 0.846733 -0.066062  0.527901
			 0.791620 -0.148360  0.592728
			 0.682405 -0.264109  0.681594
			 0.711935 -0.247738  0.657095
			 0.683690 -0.139294 -0.716355
			 0.693537 -0.001252 -0.720420
			 0.766971 -0.064671 -0.638415
			 0.607470 -0.010440 -0.794274
			-0.051663  0.102925 -0.993347
			 0.248009 -0.001775 -0.968756
			 0.527479  0.057988 -0.847587
			 0.939094  0.227675 -0.257425
			 0.985537 -0.000754  0.169459
			 0.552469  0.389409 -0.736980
			 0.022701  0.347153 -0.937534
			-0.210144  0.186785 -0.959662
			 0.918989 -0.061825  0.389405
			 0.515535 -0.102129 -0.850761
			-0.410260 -0.029743 -0.911483
			-0.560151  0.392985 -0.729242
			-0.523322  0.224573 -0.822011
			-0.234211  0.203909 -0.950561
			 0.018061  0.095369 -0.995278
			 0.293020  0.051369 -0.954725
			 0.822900 -0.026680  0.567559
			 0.873924 -0.214017  0.436411
			 0.820607 -0.103838  0.561980
			 0.965548 -0.028840  0.258623
			 0.868755  0.396273  0.297040
			 0.922557  0.383903 -0.038818
			-0.735939  0.462355 -0.494592
			-0.756767  0.604862 -0.247883
			-0.696473  0.674957 -0.243634
			-0.667844  0.703858 -0.242007
			-0.667807  0.693651 -0.269967
			-0.699309  0.654617 -0.287129
			-0.695665  0.675371 -0.244796
			-0.687190  0.676666 -0.264373
			-0.702910  0.651550 -0.285307
			-0.714214  0.662916 -0.224591
			-0.699443  0.656035 -0.283544
			-0.728910  0.645070 -0.229291
			-0.520587  0.619862  0.587163
			-0.618187  0.523361  0.586463
			-0.993317  0.092797 -0.068627
			-0.841488  0.445690  0.305383
			-0.827829  0.429119  0.361326
			-0.712675  0.676496 -0.185601
			-0.657041  0.739985 -0.143943
			-0.577605  0.816216 -0.012813
			 0.660127 -0.072370  0.747660
			 0.686391 -0.217792  0.693855
			 0.201251  0.317861  0.926533
			 0.628971 -0.113275  0.769132
			 0.504097 -0.025096  0.863282
			 0.302580  0.121662  0.945327
			-0.042250  0.388713  0.920390
			-0.365774  0.477639  0.798793
			 0.874300  0.178057  0.451547
			 0.764555  0.042618  0.643147
			 0.778031  0.349732  0.521876
			 0.724562 -0.104976  0.681168
			 0.603378  0.014672 -0.797320
			 0.780717  0.056681 -0.622309
			 0.692030  0.084590 -0.716895
			 0.773580  0.141948 -0.617596
			-0.330529  0.041227 -0.942895
			-0.192732 -0.161057 -0.967944
			 0.461145 -0.103444 -0.881274
			 0.062592 -0.424297 -0.903357
			 0.580222  0.024805 -0.814081
			 0.847212  0.233017 -0.477425
			 0.998559  0.053658 -0.000828
			 0.968297 -0.022077  0.248823
			 0.928496 -0.074114  0.363871
			 0.310422  0.320037 -0.895106
			-0.214147  0.216100 -0.952597
			 0.924690 -0.036567  0.378960
			-0.750197  0.468979 -0.466115
			-0.539079  0.559558 -0.629514
			-0.342589  0.476540 -0.809656
			-0.171546  0.248317 -0.953368
			 0.052197  0.193496 -0.979712
			 0.359665  0.289989 -0.886875
			 0.858030  0.176869  0.482184
			 0.901836  0.208749  0.378307
			 0.964946  0.118633  0.234104
			 0.971885  0.235413  0.004479
			 0.756044  0.572913  0.316495
			 0.711251  0.702896  0.007695
			 0.811129  0.566645 -0.144857
			 0.906205  0.334320 -0.258888
			 0.875410  0.395542 -0.277856
			-0.647822  0.686873 -0.329443
			-0.605931  0.752262 -0.258745
			-0.637681  0.723360 -0.264787
			-0.637687  0.724403 -0.261907
			-0.659418  0.712664 -0.239327
			-0.670961  0.702441 -0.237463
			-0.698059  0.671378 -0.248927
			-0.731138  0.630055 -0.261664
			-0.759514  0.619850 -0.197293
			-0.801052  0.566534 -0.193274
			-0.837010  0.528313 -0.142479
			-0.569521  0.455827  0.684008
			-0.846368  0.127939  0.517004
			-0.313832  0.732607  0.603984
			-0.234520  0.911347  0.338299
			-0.771081  0.594237 -0.228728
			-0.741020  0.635739 -0.216160
			-0.638523  0.736010 -0.224894
			-0.374459  0.926981 -0.022059
			 0.640960 -0.243717  0.727854
			 0.699668 -0.174258  0.692892
			 0.584800 -0.135222  0.799827
			 0.439472 -0.004082  0.898247
			 0.170055  0.187808  0.967373
			-0.069990  0.454124  0.888185
			 0.675135  0.507093  0.535770
			 0.700920  0.303191  0.645590
			 0.532940  0.798875  0.278880
			 0.751406  0.113735  0.649964
			 0.797029  0.020975 -0.603577
			 0.704110 -0.151946 -0.693644
			 0.621862 -0.270637 -0.734876
			 0.537937  0.348959 -0.767367
			 0.773799  0.138529 -0.618097
			 0.863245  0.074826 -0.499209
			-0.434574  0.090328 -0.896095
			-0.586107 -0.155007 -0.795268
			-0.440188 -0.411572 -0.798025
			 0.326652 -0.548060 -0.770019
			-0.384837 -0.586663 -0.712550
			-0.034676 -0.779289 -0.625704
			 0.817444  0.542993 -0.192207
			-0.040797  0.443986 -0.895105
			 0.984087  0.052898  0.169631
			 0.914567 -0.126658  0.384091
			 0.919125 -0.091554  0.383181
			 0.889558 -0.205654  0.407913
			 0.961451 -0.151586  0.229420
			-0.442630  0.803695 -0.397685
			-0.392166  0.698947 -0.598063
			-0.361575  0.536437 -0.762561
			-0.175681  0.412359 -0.893922
			-0.055676  0.312575 -0.948260
			 0.060939  0.387353 -0.919915
			 0.188216  0.408426 -0.893176
			 0.928627  0.262687  0.262006
			 0.944678  0.294630  0.144143
			 0.999214  0.039620 -0.001285
			 0.963053  0.267413  0.031925
			 0.934436  0.321437 -0.153325
			 0.858725  0.474685 -0.193042
			 0.472918  0.880133 -0.041413
			 0.737778  0.654337 -0.165910
			 0.906734  0.317798 -0.277198
			-0.485888  0.839819 -0.242109
			-0.538779  0.808381 -0.237143
			-0.565195  0.792462 -0.229257
			-0.594787  0.769753 -0.231754
			-0.638863  0.734008 -0.230406
			-0.687515  0.698272 -0.199348
			-0.760373  0.618169 -0.199247
			-0.818021  0.541652 -0.193533
			-0.861772  0.471188 -0.187968
			-0.881599  0.462859 -0.092433
			-0.904863  0.409441 -0.116538
			 0.091513  0.657822  0.747593
			 0.188883  0.770108  0.609308
			-0.155845  0.944159  0.290305
			-0.849498  0.475587 -0.228408
			-0.827930  0.477871 -0.293551
			-0.757972  0.503445 -0.414754
			-0.627916  0.724272 -0.284871
			-0.408291  0.911805  0.043709
			 0.725333  0.121207  0.677643
			 0.575564  0.026391  0.817331
			 0.642760  0.048910  0.764505
			 0.377777  0.168162  0.910498
			 0.318694  0.373166  0.871310
			 0.451053  0.809489  0.375870
			 0.627757  0.570209  0.529890
			 0.228102  0.968072  0.103952
			 0.729741  0.466728  0.499644
			 0.749180 -0.472980 -0.463701
			 0.907038 -0.089936 -0.411330
			 0.608463 -0.603027 -0.515879
			 0.298672 -0.843125 -0.447141
			 0.417441  0.251042 -0.873339
			 0.855874 -0.068771 -0.512592
			 0.500356  0.162153 -0.850500
			-0.727935  0.111508 -0.676518
			-0.827595 -0.137935 -0.544114
			-0.708174 -0.307264 -0.635672
			-0.565156 -0.417688 -0.711432
			-0.350266 -0.770213 -0.532997
			-0.629726 -0.612904 -0.477278
			-0.696172 -0.432350 -0.573077
			 0.022589 -0.885488 -0.464112
			-0.151791 -0.857250 -0.492019
			-0.112392  0.909920 -0.399265
			 0.666281  0.745565  0.014217
			 0.846421  0.486046  0.217557
			 0.910163  0.328950  0.251786
			-0.712099  0.410908 -0.569271
			 0.903426  0.159973  0.397781
			 0.844327  0.068095  0.531484
			 0.886813 -0.155283  0.435259
			 0.948966 -0.238539  0.206307
			 0.982838 -0.178645  0.046003
			-0.426021  0.791152 -0.438844
			-0.427662  0.872503 -0.236310
			-0.430176  0.672613 -0.602113
			-0.322761  0.641828 -0.695617
			-0.458779  0.705415 -0.540289
			-0.072559  0.386465 -0.919445
			-0.190780  0.575241 -0.795425
			-0.107937  0.441609 -0.890691
			-0.030416  0.424041 -0.905132
			 0.032018  0.415638 -0.908966
			 0.184600  0.316776 -0.930363
			 0.959813  0.267763 -0.084038
			 0.951513  0.218392 -0.216629
			 0.945901  0.034539 -0.322611
			 0.964644 -0.069272 -0.254288
			 0.883410  0.357021 -0.303517
			 0.801852  0.479660 -0.356313
			 0.198257  0.946657 -0.254038
			 0.580732  0.704801 -0.407437
			 0.894211  0.241013 -0.377226
			-0.480920  0.859359 -0.173831
			-0.557792  0.813193 -0.166086
			-0.612674  0.766246 -0.193642
			-0.675093  0.722623 -0.148542
			-0.741850  0.660497 -0.115769
			-0.819882  0.564171 -0.097489
			-0.901148  0.368138 -0.228927
			-0.845470  0.532175 -0.044382
			-0.870170  0.488283 -0.066205
			-0.886639  0.437727 -0.149222
			 0.343681  0.325966  0.880698
			 0.385893  0.351452  0.852976
			 0.380396  0.465636  0.799051
			 0.064836  0.748255  0.660235
			-0.280091  0.890634  0.358217
			-0.858979  0.342501 -0.380589
			-0.798191  0.415081 -0.436576
			-0.835372  0.306268 -0.456458
			-0.770946  0.434254 -0.465903
			-0.594954  0.791493 -0.139889
			 0.647641  0.251309  0.719309
			 0.608055  0.480782  0.631758
			 0.515413  0.092638  0.851920
			 0.634806  0.164328  0.754995
			 0.504826  0.096392  0.857822
			 0.443319  0.155408  0.882789
			 0.209584  0.950205  0.230617
			 0.471257  0.803476  0.363790
			-0.035731  0.995296 -0.090056
			 0.483739 -0.830720 -0.275501
			 0.849375 -0.517029 -0.106034
			 0.649341 -0.752374 -0.110856
			 0.402039 -0.885070 -0.234555
			 0.270679 -0.894378 -0.356119
			 0.834828 -0.480110 -0.269363
			 0.725186  0.011581 -0.688455
			 0.285229  0.396815 -0.872458
			-0.884193  0.115454 -0.452630
			-0.883222 -0.024457 -0.468318
			-0.910254 -0.198962 -0.363113
			-0.826001 -0.357798 -0.435549
			-0.376388 -0.837250 -0.396668
			-0.656639 -0.634513 -0.407698
			-0.734245 -0.537945 -0.414124
			-0.684617 -0.618742 -0.385301
			-0.752768 -0.524616 -0.397640
			-0.010055 -0.887304 -0.461076
			 0.213942 -0.890139 -0.402346
			-0.080869 -0.918164 -0.387860
			 0.444113  0.879327 -0.171894
			-0.374595  0.836338 -0.400272
			-0.856607  0.371792 -0.357765
			 0.819850  0.570412  0.049764
			 0.852670  0.496547  0.162465
			 0.868935  0.383425  0.312949
			 0.893722  0.373225  0.248928
			 0.861813  0.400360  0.311434
			 0.860652  0.482470  0.162789
			 0.849088  0.368876  0.378127
			 0.824019  0.210404  0.526045
			 0.722097  0.522758  0.453101
			 0.965664  0.077928  0.247829
			 0.994838  0.055184  0.085153
			 0.992488  0.031880 -0.118117
			-0.487046  0.818835 -0.303802
			-0.499177  0.855874 -0.135289
			-0.364409  0.798330 -0.479453
			-0.250043  0.738437 -0.626250
			-0.469855  0.806472 -0.358942
			-0.052139  0.455593 -0.888660
			-0.177913  0.596224 -0.782856
			-0.165025  0.476142 -0.863745
			-0.085527  0.478115 -0.874123
			-0.020528  0.434795 -0.900295
			 0.045123  0.392663 -0.918575
			 0.845422  0.086905 -0.526981
			 0.878288  0.073538 -0.472444
			 0.940421  0.040978 -0.337533
			 0.815835  0.400732 -0.416925
			 0.592635  0.491442 -0.638175
			 0.717795  0.415884 -0.558400
			 0.308484  0.720046 -0.621588
			-0.021841  0.792083 -0.610023
			-0.078425  0.927672 -0.365067
			 0.463902  0.574421 -0.674415
			 0.828070  0.243435 -0.505015
			-0.545178  0.832570 -0.098022
			-0.623868  0.774494 -0.104629
			-0.690939  0.719600 -0.069127
			-0.734126  0.677447 -0.046086
			-0.760036  0.649580 -0.019772
			-0.891269  0.363881 -0.270612
			-0.775691  0.630514 -0.027479
			-0.802133  0.592202 -0.076679
			-0.835507  0.522560 -0.169880
			 0.424368  0.122729  0.897134
			 0.450582  0.092122  0.887969
			 0.461453  0.188020  0.867012
			 0.330196  0.378758  0.864588
			 0.191466  0.657749  0.728496
			-0.412797  0.896762  0.159429
			-0.160064  0.889899  0.427152
			-0.874674  0.280424 -0.395357
			-0.847154  0.254466 -0.466452
			-0.710183  0.474544 -0.520046
			-0.760170  0.269879 -0.591022
			-0.614297  0.778669 -0.127726
			 0.598031  0.292916  0.746029
			 0.375675  0.356805  0.855312
			 0.294842  0.782290  0.548717
			 0.470031  0.039212  0.881778
			 0.278453  0.019168  0.960259
			 0.427682 -0.077662  0.900587
			-0.286070  0.923930  0.254004
			-0.285729  0.852480 -0.437764
			 0.525465 -0.837964 -0.147319
			 0.631910 -0.774498  0.029033
			 0.673826 -0.730933  0.108145
			 0.529089 -0.847962 -0.032005
			 0.429300 -0.862556 -0.267766
			 0.845495 -0.520604 -0.118783
			 0.506125  0.303075 -0.807454
			 0.843583 -0.080312 -0.530960
			 0.051132  0.485012 -0.873011
			 0.173894  0.476506 -0.861802
			-0.938553  0.072124 -0.337516
			-0.914592 -0.039126 -0.402481
			-0.898044 -0.175585 -0.403345
			-0.904741 -0.338632 -0.258403
			-0.882703 -0.421609 -0.207560
			-0.774511 -0.592392 -0.221821
			-0.513846 -0.748230 -0.419659
			-0.164407 -0.939585 -0.300249
			-0.680532 -0.585641 -0.440342
			-0.697389 -0.662222 -0.274064
			-0.592234 -0.727729 -0.345933
			-0.526481 -0.835289 -0.158459
			 0.059998 -0.918317 -0.391273
			 0.318853 -0.905852 -0.278865
			 0.207607 -0.922129 -0.326463
			 0.053643 -0.971566 -0.230610
			 0.824744  0.529907 -0.197473
			 0.177674  0.806037 -0.564567
			-0.614516  0.547412 -0.568076
			-0.901857  0.204197 -0.380732
			 0.940425  0.328733  0.086805
			 0.917807  0.316659  0.239493
			 0.894816  0.321472  0.309775
			 0.882858  0.438928  0.167045
			 0.846642  0.531510  0.026344
			 0.799808  0.554588  0.229650
			 0.776117  0.629623  0.034889
			 0.760278  0.648520 -0.037413
			 0.822030  0.437287  0.364757
			 0.675307  0.666368  0.316092
			 0.635889  0.736590  0.230392
			 0.883138  0.439448  0.164171
			 0.968614  0.237040  0.074823
			-0.499046  0.851333 -0.161818
			-0.512523  0.855912 -0.068808
			-0.303558  0.868112 -0.392726
			-0.440041  0.871598 -0.216056
			-0.272552  0.735873 -0.619844
			-0.042993  0.449968 -0.892009
			-0.350947  0.583151 -0.732647
			-0.419839  0.490037 -0.763936
			-0.189809  0.487315 -0.852348
			-0.098348  0.447613 -0.888803
			-0.011336  0.428644 -0.903402
			 0.817597  0.065413 -0.572063
			 0.796987  0.052546 -0.601707
			 0.837006  0.126536 -0.532363
			 0.854335  0.049952 -0.517317
			 0.855243 -0.065931 -0.514016
			 0.948528 -0.088513 -0.304074
			 0.785129  0.341222 -0.516856
			 0.462929  0.434058 -0.772845
			 0.536037  0.353527 -0.766605
			 0.673394  0.237064 -0.700243
			 0.067354  0.497894 -0.864618
			 0.337962  0.460500 -0.820805
			-0.218690  0.436114 -0.872914
			-0.278747  0.628122 -0.726472
			-0.186444  0.769979 -0.610222
			 0.817386  0.144213 -0.557748
			-0.543274  0.838437 -0.043317
			-0.580171  0.813902 -0.031060
			-0.609543  0.792543 -0.018237
			-0.626604  0.779318 -0.005482
			-0.635239  0.772314 -0.001458
			-0.861687  0.418190 -0.287425
			-0.651747  0.758105 -0.022421
			-0.694318  0.713311 -0.095448
			-0.758944  0.612358 -0.221408
			 0.455110 -0.028795  0.889970
			 0.464282 -0.093802  0.880706
			 0.474184  0.007276  0.880396
			 0.493865  0.142951  0.857707
			 0.548127  0.381377  0.744385
			 0.223747  0.794369  0.564725
			-0.320886  0.941566  0.102397
			-0.843668  0.367566 -0.391306
			-0.786842  0.292598 -0.543384
			-0.689530  0.288390 -0.664364