<?xml version="1.0"?>
<VTKFile type="PolyData" version="0.1" byte_order="LittleEndian" compressor="vtkZLibDataCompressor">
	<PolyData>
		<Piece NumberOfPoints="10732" NumberOfVerts="0" NumberOfLines="0" NumberOfStrips="0" NumberOfPolys="21480">
		<PointData Normals="Normals">
		<DataArray type="Float32" Name="Normals" NumberOfComponents="3" format="ascii">
			 0.270555  0.908327 -0.318969
			 0.625031  0.559967 -0.543851
			 0.183453  0.582598 -0.791786
			 0.276986  0.959996 -0.041053
			 0.703778  0.704381 -0.092431
			-0.160463  0.850910 -0.500204
			-0.154869  0.981059 -0.116354
			 0.657136  0.260357 -0.707380
			 0.312902  0.328821 -0.891049
			 0.812048  0.471894 -0.343357
			-0.040864  0.519253 -0.853643
			 0.286807  0.956513  0.053143
			 0.676423  0.734708  0.051539
			-0.117264  0.992713 -0.027761
			 0.738859  0.672385  0.044568
			-0.352509  0.736986 -0.576705
			-0.346511  0.910640 -0.225088
			-0.268186  0.959892 -0.081748
			 0.748393  0.064934 -0.660069
			 0.624546  0.128788 -0.770296
			 0.151191  0.510486 -0.846490
			 0.735363  0.201168 -0.647126
			 0.782421  0.579498 -0.228033
			-0.263768  0.536248 -0.801789
			 0.338198  0.918809  0.203500
			 0.684510  0.712828  0.152718
			-0.059316  0.996977  0.050189
			 0.785468  0.584916  0.202271
			-0.230811  0.972874 -0.015594
			 0.735527  0.658399  0.159720
			 0.716113  0.632622  0.294910
			-0.558257  0.580333 -0.592927
			-0.636278  0.661032 -0.397727
			-0.468369  0.863422 -0.187439
			-0.418805  0.906531 -0.052959
			 0.649050 -0.107869 -0.753059
			 0.661875 -0.106438 -0.742019
			 0.383971  0.402912 -0.830800
			 0.642269  0.023331 -0.766124
			 0.759606 -0.164770 -0.629165
			 0.675825 -0.154945 -0.720592
			-0.214034  0.489896 -0.845098
			-0.057798  0.415306 -0.907844
			 0.852390  0.306809 -0.423438
			 0.645646  0.003814 -0.763628
			 0.861637  0.505673  0.043309
			-0.609166  0.429063 -0.666949
			-0.509097  0.391025 -0.766759
			 0.641287  0.701397  0.311117
			 0.483171  0.752386  0.447729
			 0.159196  0.961285  0.224918
			 0.788673  0.532768  0.306843
			-0.184115  0.981300  0.056138
			 0.754243  0.552938  0.354085
			-0.422125  0.905947  0.032702
			 0.768275  0.591717  0.244181
			 0.738134  0.594391  0.319149
			 0.706064  0.599453  0.376999
			-0.790821  0.417311 -0.447720
			-0.893674  0.193165 -0.405011
			-0.805776  0.454594 -0.379563
			-0.755388  0.645307 -0.113880
			-0.771590  0.635419  0.029872
			 0.587152 -0.096256 -0.803733
			 0.603771 -0.142472 -0.784323
			 0.229934  0.111721 -0.966772
			 0.526747 -0.155952 -0.835593
			 0.639307 -0.224938 -0.735316
			 0.705205 -0.231128 -0.670273
			-0.424999  0.382599 -0.820362
			-0.096454  0.212811 -0.972321
			 0.840211  0.057305 -0.539223
			 0.946303  0.312141 -0.084136
			 0.640334 -0.103112 -0.761144
			 0.863378  0.472175  0.177846
			-0.756562  0.407673 -0.511289
			 0.671391  0.571322  0.472044
			 0.521487  0.686885  0.506201
			 0.573639  0.588310  0.569938
			 0.310763  0.808799  0.499270
			-0.166015  0.964389  0.205897
			 0.719787  0.525512  0.453591
			-0.402053  0.905579  0.135205
			 0.707713  0.564590  0.424713
			 0.714573  0.565899  0.411272
			-0.780914  0.590824  0.202731
			 0.777726  0.550037  0.304305
			 0.742544  0.564783  0.360066
			 0.688262  0.529176  0.496253
			-0.946723 -0.109836 -0.302739
			-0.846971  0.472778 -0.243148
			-0.958015  0.230112 -0.171041
			-0.982270  0.061898 -0.176959
			-0.999586  0.020976 -0.019709
			-0.992328  0.013363  0.122908
			 0.597491 -0.079672 -0.797908
			 0.571335  0.022568 -0.820407
			 0.520425 -0.018720 -0.853702
			 0.676735 -0.251766 -0.691841
			 0.507245 -0.115094 -0.854082
			 0.224419 -0.048144 -0.973303
			 0.610519 -0.333365 -0.718425
			 0.412824 -0.208276 -0.886678
			-0.243503  0.276608 -0.929620
			-0.538082  0.496078 -0.681450
			 0.741349 -0.045797 -0.669556
			 0.933220  0.138821 -0.331404
			 0.954413  0.294135  0.050802
			 0.895133  0.387035  0.221225
			-0.655493  0.595828 -0.464023
			-0.695416  0.674082 -0.249019
			 0.445299  0.408053  0.796995
			 0.342779  0.646656  0.681424
			 0.658563  0.585821  0.472345
			 0.542336  0.668915  0.508354
			 0.335052  0.313838  0.888395
			-0.112220  0.771084  0.626767
			-0.543293  0.754559  0.368066
			 0.679010  0.592539  0.433408
			 0.708812  0.556004  0.434103
			 0.769702  0.446249  0.456531
			-0.841623 -0.057841  0.536959
			-0.929198 -0.118162  0.350184
			 0.825060  0.439710  0.354867
			 0.802691  0.310139  0.509413
			 0.803602  0.221372  0.552465
			-0.976231 -0.207112 -0.063854
			-0.724363  0.677929 -0.125345
			-0.955623  0.294477  0.008195
			-0.763153  0.646214  0.002201
			-0.984371 -0.169384  0.048200
			-0.937082 -0.194652  0.289808
			 0.659522  0.060059 -0.749282
			 0.522564  0.092094 -0.847612
			 0.486120 -0.021459 -0.873629
			 0.451014 -0.029527 -0.892028
			 0.571511 -0.282140 -0.770566
			 0.493387 -0.096071 -0.864488
			 0.433822 -0.015226 -0.900870
			 0.092957 -0.002162 -0.995668
			 0.467619 -0.331701 -0.819334
			 0.238581 -0.154612 -0.958736
			-0.472727  0.468176 -0.746552
			-0.161179  0.189984 -0.968466
			-0.604640  0.535619 -0.589510
			 0.785503  0.030772 -0.618092
			 0.946789  0.054450 -0.317215
			 0.990111  0.140040 -0.008282
			 0.976265  0.129068  0.173919
			 0.948120  0.169867  0.268726
			-0.670102  0.567060 -0.478964
			-0.692499  0.639729 -0.333456
			-0.675571  0.720979 -0.154251
			 0.166690 -0.113703  0.979431
			-0.044299  0.475256  0.878732
			 0.221215  0.821263  0.525919
			 0.662514  0.582078  0.471445
			 0.518557  0.734191  0.438248
			 0.701798  0.570537  0.426577
			 0.001720 -0.054927  0.998489
			-0.368036  0.237521  0.898962
			-0.645630 -0.020438  0.763377
			 0.723074  0.482705  0.494125
			 0.788074  0.330518  0.519324
			-0.329272 -0.375991  0.866147
			-0.749896 -0.232048  0.619523
			 0.898214  0.031835  0.438404
			 0.845922  0.143691  0.513584
			 0.913403 -0.041861  0.404898
			 0.903996  0.024329  0.426848
			-0.723537  0.690285 -0.000460
			-0.940118  0.282837  0.190212
			-0.787073  0.605129  0.119726
			-0.760206  0.635779  0.133686
			-0.827590  0.294764  0.477712
			 0.650761  0.042572 -0.758088
			 0.819436 -0.036777 -0.571989
			 0.685737 -0.066016 -0.724849
			 0.593449 -0.045695 -0.803573
			 0.468915  0.015924 -0.883100
			 0.521808 -0.166510 -0.836655
			 0.463522 -0.234998 -0.854355
			 0.441454  0.043731 -0.896218
			 0.472344 -0.031765 -0.880842
			 0.430160  0.104178 -0.896721
			 0.026202  0.053995 -0.998197
			 0.250937 -0.126963 -0.959641
			-0.496039  0.442659 -0.746992
			-0.672324  0.508618 -0.537855
			-0.355585  0.291134 -0.888144
			 0.973882 -0.091831 -0.207655
			 0.997474 -0.020413  0.068040
			 0.980711 -0.041976  0.190902
			 0.957258 -0.011930  0.288989
			-0.718633  0.534865 -0.444394
			-0.737103  0.538648 -0.408090
			-0.762670  0.619882 -0.184610
			-0.564140  0.355585  0.745188
			-0.302960  0.800263  0.517489
			 0.410986  0.798806  0.439316
			-0.038612  0.933925  0.355378
			 0.737548  0.434906  0.516603
			 0.584916  0.683898  0.436069
			 0.730023  0.534554  0.425815
			 0.823319  0.354202  0.443494
			 0.817790  0.262115  0.512363
			 0.866383 -0.060348  0.495721
			 0.875453  0.009944  0.483202
			 0.960058 -0.114530  0.255287
			 0.935428 -0.135864  0.326366
			 0.898282 -0.136256  0.417761
			-0.793107  0.608118 -0.034254
			-0.761386  0.630440  0.151118
			-0.753520  0.592126  0.285648
			-0.776745  0.589445  0.221860
			-0.792440  0.562198  0.236584
			-0.602387  0.666477  0.439247
			 0.933165 -0.180063 -0.311095
			 0.794113 -0.047343 -0.605923
			 0.960956 -0.080069 -0.264864
			 0.638582  0.041828 -0.768416
			 0.515878  0.151440 -0.843170
			 0.425629 -0.177156 -0.887387
			 0.400670 -0.104338 -0.910262
			 0.404320  0.174333 -0.897849
			 0.395314  0.063031 -0.916381
			 0.434586  0.255741 -0.863557
			-0.042819  0.046947 -0.997979
			 0.031176 -0.009415 -0.999470
			 0.347050 -0.171124 -0.922102
			 0.221874 -0.102400 -0.969684
			-0.649040  0.485048 -0.586068
			-0.719227  0.524449 -0.455703
			-0.573440  0.489735 -0.656754
			-0.318175  0.252942 -0.913665
			 0.985895 -0.166291  0.018921
			 0.986010 -0.118552  0.117176
			-0.797426  0.521692 -0.303230
			-0.771790  0.494660 -0.399564
			-0.830156  0.534964 -0.157020
			-0.504129  0.795067  0.337227
			 0.428054  0.828788  0.360389
			 0.626662  0.636615  0.449462
			-0.040194  0.927866  0.370741
			-0.414208  0.862035  0.292107
			 0.786207  0.415069  0.457818
			 0.863752  0.282082  0.417566
			 0.830525  0.312114  0.461316
			 0.846021  0.283544  0.451498
			 0.894625  0.105154  0.434269
			 0.869416 -0.249068  0.426709
			 0.913035 -0.115346  0.391232
			 0.986143 -0.139628  0.089587
			 0.948862 -0.177871  0.260812
			 0.897523 -0.255455  0.359438
			 0.897924 -0.264006  0.352184
			-0.786820  0.603359  0.129893
			-0.780294  0.611851 -0.129537
			-0.768585  0.637100  0.058150
			-0.758363  0.602886  0.247819
			-0.673884  0.669654  0.312161
			-0.759714  0.601735  0.246474
			-0.802350  0.561535  0.202271
			-0.727297  0.649018  0.223191
			-0.734551  0.659571  0.159378
			 0.828700  0.042365 -0.558087
			 0.972334 -0.014545 -0.233143
			 0.985718 -0.091020  0.141685
			 0.724613  0.118331 -0.678921
			 0.580065  0.358972 -0.731207
			 0.343719 -0.129972 -0.930035
			 0.295876  0.015267 -0.955104
			 0.324167 -0.032693 -0.945435
			 0.365569  0.304654 -0.879514
			 0.286154  0.167909 -0.943357
			 0.392991  0.398830 -0.828548
			-0.042379  0.039125 -0.998335
			 0.005813 -0.009060 -0.999942
			 0.313992 -0.073187 -0.946601
			 0.167230 -0.035327 -0.985285
			-0.681089  0.576471 -0.451441
			-0.737438  0.561051 -0.376042
			-0.525806  0.514149 -0.677628
			-0.616316  0.637139 -0.462828
			-0.487097  0.460059 -0.742349
			-0.247549  0.189645 -0.950134
			-0.786360  0.554954 -0.271411
			-0.613915  0.738696  0.278275
			-0.543680  0.805834  0.234614
			 0.232454  0.883231  0.407268
			 0.655252  0.691115  0.304967
			 0.847999  0.368999  0.380443
			-0.247054  0.903684  0.349741
			-0.425797  0.873612  0.235584
			 0.857840  0.267318  0.438921
			 0.850017  0.180370  0.494911
			 0.857999 -0.008246  0.513585
			 0.898857 -0.081682  0.430563
			 0.885854 -0.283893  0.366971
			 0.872804 -0.284915  0.396279
			 0.902401 -0.243858  0.355255
			 0.897707 -0.208115  0.388344
			 0.930780 -0.219353  0.292461
			 0.897062 -0.269378  0.350306
			-0.694878  0.716735 -0.058609
			-0.703200  0.686269 -0.185860
			-0.664457  0.727533  0.170860
			-0.653269  0.753826  0.070615
			-0.635830  0.741660  0.213681
			-0.691951  0.672011  0.263828
			-0.752162  0.628336  0.198611
			-0.730136  0.669924  0.134549
			-0.570682  0.811714  0.124268
			-0.623468  0.770601  0.132140
			 0.920214 -0.060534 -0.386707
			 0.986110 -0.155089 -0.059445
			 0.922172 -0.212984  0.322857
			 0.946190 -0.188742  0.262871
			 0.919732  0.207962 -0.332934
			 0.414617  0.481034 -0.772463
			 0.628114  0.489888 -0.604552
			 0.222821  0.058082 -0.973128
			 0.312522 -0.009992 -0.949858
			 0.282282 -0.000704 -0.959331
			 0.261149  0.371254 -0.891051
			 0.111125  0.226574 -0.967634
			-0.088181  0.035054 -0.995488
			-0.002599  0.014708 -0.999888
			 0.205500 -0.012513 -0.978577
			-0.685472  0.654446 -0.319106
			-0.584893  0.573248 -0.573835
			-0.640059  0.636802 -0.429893
			-0.657218  0.684179 -0.316171
			-0.495152  0.419116 -0.761030
			-0.621525  0.597049 -0.507187
			-0.353905  0.137728 -0.925085
			-0.656072  0.733272  0.178555
			-0.542059  0.831356  0.122552
			 0.162693  0.960781  0.224567
			 0.722009  0.657159  0.216437
			 0.887856  0.367848  0.276404
			 0.893933  0.200951  0.400627
			 0.910150  0.119430  0.396691
			-0.294026  0.944267  0.148017
			 0.853653  0.017404  0.520551
			 0.854485 -0.163435  0.493097
			 0.874527 -0.285285  0.392194
			 0.900234 -0.271108  0.340704
			 0.863172 -0.300080  0.406062
			 0.880348 -0.307055  0.361530
			 0.894703 -0.247719  0.371675
			 0.887201 -0.348121  0.302798
			-0.584096  0.808523 -0.071573
			-0.659558  0.711395 -0.242694
			-0.518465  0.849157  0.100628
			-0.733182  0.667325  0.130850
			-0.740350  0.652101  0.163240
			-0.675713  0.713974  0.183449
			-0.494000  0.856706  0.148390
			-0.538732  0.825507  0.168242
			-0.613435  0.744475  0.263543
			 0.955497 -0.287702 -0.065208
			 0.916433 -0.379671  0.126497
			 0.774011  0.575326 -0.264400
			 0.965840  0.258511 -0.018035
			 0.977708 -0.087309  0.190958
			 0.329460  0.626056 -0.706760
			 0.091904  0.102193 -0.990510
			 0.312951 -0.038609 -0.948984
			 0.199591 -0.029302 -0.979441
			 0.019781  0.525534 -0.850542
			-0.122173  0.335519 -0.934077
			-0.266476  0.048043 -0.962643
			-0.157351  0.097686 -0.982699
			 0.077547  0.021646 -0.996754
			 0.257634 -0.036532 -0.965552
			-0.667321  0.655184 -0.354141
			-0.651785  0.707205 -0.273929
			-0.538801  0.242166 -0.806876
			-0.602656  0.548047 -0.580044
			-0.605719  0.717257 -0.344451
			-0.444777  0.100998 -0.889928
			-0.727822  0.675714  0.116987
			-0.534775  0.843269  0.053976
			-0.759587  0.647617  0.060163
			 0.287238  0.944424  0.159868
			-0.160706  0.983669  0.081045
			 0.755359  0.551985  0.353192
			 0.888738  0.250798  0.383726
			 0.882408  0.059775  0.466672
			 0.908447 -0.050934  0.414884
			 0.877865 -0.079701  0.472229
			-0.451703  0.890400  0.056146
			 0.791002 -0.222979  0.569733
			 0.792869 -0.176032  0.583414
			 0.835439 -0.219991  0.503632
			 0.871538 -0.323987  0.368040
			 0.902587 -0.274394  0.331729
			 0.862817 -0.343497  0.370887
			 0.874843 -0.329054  0.355491
			 0.938417 -0.186228  0.291020
			 0.909657 -0.043500  0.413075
			 0.908659 -0.284812  0.305321
			-0.516414  0.853653  0.067770
			-0.623711  0.750097 -0.219860
			-0.591084  0.806371 -0.019639
			-0.639932  0.717528 -0.275029
			-0.510661  0.844044  0.163754
			-0.816082  0.551576  0.172549
			-0.712445  0.644640  0.277238
			-0.562890  0.788106  0.249086
			-0.615176  0.734607  0.286200
			-0.562151  0.778693  0.278611
			-0.557721  0.787273  0.262961
			 0.227131  0.935059 -0.272170
			 0.650821  0.744069  0.150973
			 0.907271  0.182865  0.378709
			 0.930673 -0.164634  0.326716
			 0.922227 -0.121594  0.367031
			-0.090415  0.810019 -0.579392
			-0.144602  0.103367 -0.984076
			 0.306139 -0.069175 -0.949470
			 0.061068  0.024581 -0.997831
			 0.249582  0.007270 -0.968326
			-0.331933  0.532051 -0.778937
			-0.372771  0.243624 -0.895371
			-0.348974  0.164020 -0.922667
			-0.021483  0.045434 -0.998736
			-0.268873  0.212054 -0.939543
			-0.144418  0.117476 -0.982519
			 0.122279 -0.001063 -0.992495
			 0.318804 -0.025023 -0.947490
			 0.248584  0.070831 -0.966017
			-0.581832  0.772409 -0.254668
			-0.527769  0.278068 -0.802582
			-0.610168  0.492915 -0.620266
			-0.607402  0.668827 -0.428641
			-0.554922  0.784634 -0.276425
			-0.419216  0.194600 -0.886786
			-0.769058  0.637888  0.040598
			-0.879060  0.471801  0.068251
			 0.458573  0.778871  0.427868
			-0.079056  0.985076  0.152889
			-0.397569  0.915638  0.059552
			 0.755155  0.287518  0.589130
			 0.836469  0.153669  0.526028
			 0.885174 -0.108207  0.452502
			 0.754345  0.183166  0.630407
			 0.835523 -0.027022  0.548790
			 0.854687 -0.237648  0.461555
			-0.744790  0.666749  0.027084
			 0.705996 -0.259453  0.658979
			 0.823414 -0.273617  0.497115
			 0.800414 -0.180296  0.571691
			 0.741496 -0.264493  0.616625
			 0.790218 -0.181920  0.585201
			 0.918622 -0.251983  0.304365
			 0.868165 -0.290951  0.402041
			 0.949100 -0.178418  0.259570
			 0.963062 -0.112124  0.244825
			 0.905973 -0.225949  0.357994
			 0.984827  0.099233  0.142367
			 0.938411  0.256812  0.231155
			 0.841173  0.083329  0.534307
			 0.847435  0.269794  0.457237
			-0.611484  0.771648  0.175063
			-0.602422  0.748883 -0.276157
			-0.607646  0.767705 -0.203459
			-0.645774  0.763205  0.022229
			-0.740876  0.633887  0.222011
			-0.787843  0.605670  0.111661
			-0.630216  0.735713  0.248099
			-0.579696  0.775037  0.251535
			-0.554482  0.790786  0.259243
			-0.539733  0.810658  0.226982
			-0.528492  0.816673  0.231822
			 0.504204  0.861988  0.052491
			 0.271951  0.957025 -0.100725
			-0.173143  0.939735 -0.294820
			 0.807761  0.523733  0.270603
			 0.799077  0.464417  0.381828
			 0.922151 -0.022318  0.386187
			 0.863488  0.055776  0.501276
			 0.792223  0.050217  0.608161
			 0.852850  0.181848  0.489466
			 0.922909 -0.078585  0.376913
			-0.473224  0.641099 -0.604194
			-0.353491  0.086453 -0.931434
			-0.092528  0.040803 -0.994874
			 0.367506  0.071548 -0.927265
			 0.199518 -0.036959 -0.979197
			-0.521129  0.391877 -0.758194
			-0.541884  0.209503 -0.813923
			-0.493862  0.078753 -0.865967
			-0.373534  0.274843 -0.885965
			 0.026985  0.081663 -0.996295
			-0.305973  0.234822 -0.922626
			-0.228347  0.205154 -0.951719
			-0.078946  0.211864 -0.974105
			 0.114714  0.335941 -0.934871
			 0.404332  0.285657 -0.868859
			-0.595192  0.780099 -0.192852
			-0.619184  0.379512 -0.687446
			-0.478991  0.301199 -0.824528
			-0.661252  0.514620 -0.545814
			-0.632710  0.548930 -0.546218
			-0.613187  0.706189 -0.353976
			-0.606834  0.781491 -0.144997
			-0.888138  0.459118  0.020520
			-0.821541  0.569448  0.028287
			 0.618410  0.439699  0.651333
			 0.199750  0.811306  0.549438
			-0.325007  0.921989  0.210493
			-0.724275  0.684533  0.082706
			 0.658053  0.179353  0.731300
			 0.845720 -0.222822  0.484880
			 0.601722  0.221839  0.767280
			 0.728898  0.143325  0.669452
			 0.692709 -0.019149  0.720963
			 0.756478 -0.189380  0.626000
			 0.824619 -0.311573  0.472151
			-0.884180  0.465585  0.038160
			 0.773436 -0.145209  0.617018
			 0.853365 -0.143421  0.501197
			 0.840617  0.044956  0.539762
			 0.941918 -0.131782  0.308907
			 0.989581  0.014475  0.143247
			 0.918589 -0.155686  0.363258
			 0.880551 -0.174609  0.440616
			 0.985856  0.131647  0.103715
			 0.957610  0.287715  0.014263
			 0.904156  0.426954 -0.014550
			 0.791986  0.537196  0.290136
			 0.815320  0.211543  0.538983
			 0.758511  0.375911  0.532307
			-0.719559  0.666834  0.193821
			-0.651356  0.730006  0.206946
			-0.667468  0.741494 -0.068362
			-0.724589  0.666663  0.174730
			-0.618654  0.769913  0.156529
			-0.692899  0.718097  0.065024
			-0.619550  0.753622  0.219570
			-0.585604  0.783003  0.209698
			-0.558447  0.779692  0.283227
			-0.653591  0.681682  0.328827
			-0.615575  0.743351  0.261718
			-0.645333  0.672808  0.361766
			 0.717952  0.688739  0.100912
			 0.049920  0.967615 -0.247446
			 0.550094  0.831929  0.072739
			-0.426683  0.775936 -0.464613
			 0.822246  0.404469  0.400395
			 0.906083  0.078414  0.415770
			 0.850667  0.100628  0.515984
			 0.808841  0.143833  0.570165
			 0.780353  0.063785  0.622077
			 0.880387 -0.004826  0.474231
			-0.709728  0.306200 -0.634451
			-0.595209  0.198745 -0.778606
			-0.414195 -0.031583 -0.909640
			-0.210270 -0.159422 -0.964557
			 0.501041  0.091857 -0.860535
			 0.201897 -0.291524 -0.935014
			-0.557842  0.158786 -0.814616
			-0.593374  0.010257 -0.804861
			-0.568261 -0.045526 -0.821588
			-0.422799  0.285704 -0.860008
			-0.379522  0.245366 -0.892053
			-0.167565  0.307503 -0.936677
			-0.387112  0.255274 -0.885991
			-0.355325  0.337509 -0.871683
			-0.093626  0.445268 -0.890489
			 0.272115  0.452037 -0.849480
			 0.064956  0.572023 -0.817662
			 0.437230  0.434202 -0.787591
			 0.599047  0.332290 -0.728509
			-0.716829  0.691590  0.088649
			-0.574790  0.427305 -0.697873
			-0.533903  0.352399 -0.768611
			-0.531343  0.253432 -0.808360
			-0.665291  0.573117 -0.478460
			-0.632765  0.521839 -0.572095
			-0.682185  0.628501 -0.373644
			-0.717000  0.694227 -0.062923
			-0.832888  0.552812  0.026395
			-0.730153  0.682510  0.032508
			 0.519951  0.383447  0.763295
			 0.460703  0.336547  0.821273
			-0.047288  0.712315  0.700265
			-0.660159  0.650521  0.375516
			-0.867774  0.436432  0.237689
			 0.787750 -0.316287  0.528595
			 0.508258  0.297911  0.808036
			 0.557869  0.207372  0.803604
			 0.644609 -0.050492  0.762844
			 0.756316 -0.272192  0.594894
			 0.797621 -0.240538  0.553120
			-0.822516  0.529248  0.208238
			 0.805940 -0.047428  0.590094
			 0.765473  0.187442  0.615562
			 0.980673  0.088256  0.174616
			 0.981163  0.192039  0.020991
			 0.976654  0.211021 -0.040204
			 0.940198 -0.035298  0.338793
			 0.899816 -0.003108  0.436260
			 0.916552  0.369646 -0.152628
			 0.831459  0.525857 -0.179306
			 0.784708  0.619757 -0.011587
			 0.613037  0.644077  0.457549
			 0.583170  0.778106  0.233376
			 0.627520  0.492359  0.603159
			-0.723387  0.661892  0.196494
			-0.793572  0.532010  0.295310
			-0.815021  0.532006  0.229588
			-0.681669  0.707446  0.186677
			-0.727749  0.682665  0.065953
			-0.761805  0.607122  0.225955
			-0.759144  0.591284  0.272184
			-0.764622  0.579422  0.282178
			-0.743769  0.481485  0.463660
			-0.754104  0.522607  0.397755
			-0.787025  0.504124  0.355599
			-0.738503  0.458159  0.494676
			 0.271102  0.915636 -0.296841
			-0.150748  0.834341 -0.530236
			 0.519330  0.853079 -0.050528
			 0.715227  0.641730  0.276825
			-0.606072  0.497010 -0.621013
			 0.819599  0.394242  0.415729
			 0.799674  0.305165  0.517103
			 0.812318  0.206715  0.545351
			 0.889993  0.145424  0.432163
			 0.874110  0.126795  0.468887
			 0.864802  0.100224  0.492008
			 0.772110  0.037235  0.634397
			 0.801293 -0.044668  0.596602
			 0.899957  0.123201  0.418209
			-0.826754  0.109740 -0.551756
			-0.717546  0.024960 -0.696064
			-0.628401 -0.009494 -0.777832
			-0.546561 -0.017818 -0.837230
			-0.513491 -0.206948 -0.832766
			-0.399089 -0.413615 -0.818322
			 0.771838  0.093613 -0.628890
			-0.103519 -0.431107 -0.896343
			 0.482254 -0.246590 -0.840610
			-0.582034 -0.101205 -0.806842
			-0.623646 -0.193485 -0.757383
			-0.531378  0.243748 -0.811311
			-0.199138  0.511992 -0.835589
			-0.525415  0.245837 -0.814557
			-0.348717  0.542984 -0.763915
			-0.629298  0.280135 -0.724919
			-0.599799  0.459717 -0.654906
			-0.134504  0.630908 -0.764110
			 0.273485  0.519505 -0.809519
			 0.211799  0.622262 -0.753612
			-0.065334  0.673045 -0.736710
			 0.524062  0.431253 -0.734425
			 0.413512  0.527766 -0.741937
			 0.642925  0.421065 -0.639806
			-0.845244  0.494279  0.203101
			-0.776086  0.536018  0.332228
			-0.639012  0.328842 -0.695361
			-0.661486  0.268061 -0.700414
			-0.757260  0.132153 -0.639603
			-0.758414  0.094567 -0.644877
			-0.825796  0.381752 -0.415121
			-0.787500  0.358855 -0.501066
			-0.790686  0.546864 -0.275238
			-0.865977  0.471984 -0.165273
			-0.734990  0.660871  0.151790
			-0.720446  0.687976  0.087443
			 0.229294  0.326131  0.917095
			-0.365240  0.417741  0.831921
			-0.693744  0.324258  0.643098
			-0.653922  0.388662  0.649097
			 0.341774  0.226650  0.912042
			 0.396857  0.065968  0.915507
			 0.429328 -0.071695  0.900298
			 0.654308 -0.170718  0.736706
			 0.700554 -0.296980  0.648866
			 0.725778 -0.335292  0.600688
			 0.748030 -0.288973  0.597450
			 0.760661 -0.166915  0.627323
			-0.604695  0.578671  0.547251
			 0.748709  0.045927  0.661306
			 0.681229  0.293742  0.670554
			 0.957679  0.151801  0.244557
			 0.975566  0.197807  0.095619
			 0.975772  0.218490 -0.011427
			 0.944597  0.280531 -0.170407
			 0.895656  0.290946 -0.336379
			 0.869142  0.400463 -0.290211
			 0.830443  0.507250 -0.230352
			 0.727190  0.685181 -0.041490
			 0.413639  0.797765  0.438718
			 0.360130  0.903800  0.231196
			 0.466506  0.879592 -0.093217
			 0.521896  0.603326  0.603011
			-0.862763  0.432051  0.262626
			-0.834121  0.360174  0.417752
			-0.874609  0.343922  0.341725
			-0.849950  0.430083  0.304324
			-0.874455  0.385736  0.294169
			-0.786638  0.610540  0.091880
			-0.740789  0.671454  0.019501
			-0.867396  0.352956  0.350779
			-0.808313  0.580226  0.099837
			-0.822503  0.472289  0.316909
			-0.825328  0.559352  0.077189
			-0.806121  0.413831  0.422980
			-0.805235  0.301907  0.510342
			-0.855997  0.377790  0.352908
			-0.840314  0.299731  0.451701
			 0.043028  0.912063 -0.407785
			-0.538621  0.663183 -0.519688
			 0.335132  0.916730 -0.217471
			 0.698294  0.707129  0.111147
			 0.800567  0.546365  0.246125
			 0.842059  0.383535  0.379259
			 0.869402  0.313361  0.382027
			 0.836086  0.139351  0.530604
			 0.783038 -0.010321  0.621888
			 0.911590  0.161820  0.377912
			 0.873839  0.188333  0.448259
			 0.890384  0.193669  0.411957
			 0.902141  0.051193  0.428394
			 0.784634 -0.176288  0.594367
			 0.874225 -0.130581  0.467631
			 0.945337  0.220074  0.240634
			-0.901008  0.170172 -0.399033
			-0.918168 -0.074465 -0.389130
			-0.773660 -0.055052 -0.631205
			-0.629036 -0.073909 -0.773854
			-0.564888 -0.096364 -0.819521
			-0.624629 -0.409777 -0.664772
			-0.503066 -0.502188 -0.703371
			-0.193561 -0.347386 -0.917528
			 0.843460  0.280417 -0.458194
			 0.863857  0.222290 -0.452037
			 0.692292  0.124990 -0.710710
			 0.265497 -0.096801 -0.959240
			-0.603654 -0.200324 -0.771668
			-0.658698 -0.368369 -0.656065
			-0.756430  0.190914 -0.625592
			-0.249299  0.653652 -0.714556
			-0.442708  0.647214 -0.620583
			-0.855312  0.292015 -0.427983
			-0.777495  0.496196 -0.386381
			 0.112304  0.558533 -0.821845
			 0.269340  0.547794 -0.792072
			-0.041859  0.517425 -0.854704
			-0.249504  0.640450 -0.726341
			 0.344513  0.440907 -0.828801
			 0.514809  0.433145 -0.739836
			 0.711186  0.347188 -0.611290
			-0.877574  0.329275  0.348485
			-0.873355  0.320292  0.366966
			-0.941246  0.078895  0.328378
			-0.849574  0.074100 -0.522238
			-0.842274  0.093793 -0.530827
			-0.936221 -0.053150 -0.347369
			-0.948623  0.063352 -0.310002
			-0.952121  0.034445 -0.303775
			-0.877047 -0.118368 -0.465594
			-0.959168  0.171236 -0.225112
			-0.632353  0.690156  0.351872
			-0.656733  0.738937  0.150578
			-0.104837  0.171904  0.979519
			-0.197840  0.249076  0.948061
			 0.094133  0.024858  0.995249
			 0.592052 -0.290601  0.751682
			 0.387021 -0.059306  0.920162
			 0.725854 -0.248243  0.641491
			 0.746565 -0.046407  0.663692
			-0.226791  0.615927  0.754453
			 0.716422  0.162836  0.678398
			 0.596365  0.459261  0.658353
			 0.960192  0.260424  0.101048
			 0.949711  0.309647 -0.046565
			 0.931839  0.326803 -0.157723
			 0.895445  0.304142 -0.325080
			 0.875634  0.391675 -0.282589
			 0.858266  0.339671 -0.384712
			 0.835008  0.421836 -0.353293
			 0.680320  0.618759 -0.392812
			 0.194096  0.905967  0.376233
			 0.346199  0.748235  0.565941
			 0.219726  0.974009  0.055014
			 0.199192  0.958560  0.203680
			 0.280845  0.834495 -0.474072
			 0.009828  0.939869 -0.341393
			-0.901693  0.241347  0.358749
			-0.900832  0.271547  0.338768
			-0.906792  0.224601  0.356768
			-0.900294  0.255789  0.352196
			-0.879816  0.321732  0.349873
			-0.859309  0.303552  0.411637
			-0.787111  0.613812 -0.060760
			-0.675530  0.737260 -0.010397
			-0.849018  0.260782  0.459522
			-0.860152  0.491002  0.138046
			-0.819821  0.558682 -0.125567
			-0.840589  0.531675 -0.103593
			-0.825893  0.352193  0.440297
			-0.907052  0.356142  0.224544
			-0.904431  0.426012  0.022786
			-0.026716  0.860416 -0.508891
			-0.516162  0.581581 -0.628761
			 0.674395  0.738181 -0.016765
			 0.431349  0.804229 -0.408845
			 0.852600  0.419016  0.312248
			 0.920889  0.024846  0.389031
			 0.811152 -0.234649  0.535697
			 0.774242 -0.310850  0.551291
			 0.944526  0.141437  0.296423
			 0.919135  0.259688  0.296232
			 0.868154  0.268135  0.417628
			 0.880084  0.245005  0.406724
			 0.934956  0.280882  0.216710
			 0.828417 -0.091563  0.552577
			 0.930603  0.084580  0.356125
			 0.932574  0.358296  0.043920
			-0.604356  0.301239 -0.737570
			-0.937166 -0.041202 -0.346441
			-0.928225 -0.131715 -0.347921
			-0.810332 -0.094598 -0.578285
			-0.663814 -0.077689 -0.743852
			-0.640570 -0.157474 -0.751579
			-0.672238 -0.553383 -0.491795
			-0.532147 -0.587141 -0.609987
			-0.444533 -0.436483 -0.782223
			 0.402300  0.034965 -0.914840
			 0.025781 -0.487056 -0.872990
			 0.873715  0.151000 -0.462408
			 0.787172  0.171227 -0.592487
			 0.885355  0.225943 -0.406319
			 0.732907  0.152967 -0.662909
			-0.669792 -0.412140 -0.617672
			-0.649603 -0.579649 -0.491958
			-0.332313  0.625412 -0.705994
			-0.460070  0.586098 -0.666951
			-0.674401  0.584820 -0.450743
			-0.949668  0.251804 -0.186345
			-0.899908  0.384270 -0.206161
			-0.891130  0.278898 -0.357915
			-0.877354  0.392888 -0.275480
			 0.185236  0.396425 -0.899186
			-0.200665  0.536445 -0.819732
			 0.054270  0.522987 -0.850611
			 0.365489  0.312066 -0.876945
			 0.578225  0.261324 -0.772894
			-0.946525 -0.110532  0.303107
			-0.869044 -0.262379  0.419427
			-0.940695 -0.338633  0.020493
			-0.983072 -0.116126  0.141718
			-0.960946  0.062118  0.269674
			-0.958021 -0.117903 -0.261332
			-0.979118 -0.148577 -0.138757
			-0.989327 -0.047909 -0.137610
			-0.977160  0.181291 -0.110870
			-0.961186 -0.222517 -0.163118
			-0.863348 -0.484435 -0.141255
			-0.476901  0.776068  0.412655
			-0.364950  0.882562  0.296472
			 0.181213  0.257124  0.949236
			 0.676520 -0.190721  0.711299
			 0.699347 -0.028239  0.714224
			 0.501015  0.071022  0.862520
			 0.784182 -0.108112  0.611040