<?xml version="1.0"?>
<VTKFile type="PolyData" version="0.1" byte_order="LittleEndian" compressor="vtkZLibDataCompressor">
	<PolyData>
		<Piece NumberOfPoints="11256" NumberOfVerts="0" NumberOfLines="0" NumberOfStrips="0" NumberOfPolys="22516">
		<PointData Normals="Normals">
		<DataArray type="Float32" Name="Normals" NumberOfComponents="3" format="ascii">
			 0.020271  0.977471 -0.210092
			 0.641931  0.695832 -0.322091
			 0.464824  0.733131 -0.496445
			 0.011139  0.998821 -0.047246
			 0.585445  0.806515 -0.082386
			-0.139509  0.823290 -0.550209
			-0.636172  0.730337 -0.248782
			-0.556503  0.826075 -0.088908
			 0.657678  0.554787 -0.509579
			 0.710209  0.569863 -0.413351
			 0.778120  0.602613 -0.177164
			 0.482704  0.572274 -0.662947
			 0.012756  0.999783 -0.016450
			 0.560544  0.827507 -0.031986
			-0.516117  0.855413 -0.043494
			 0.772118  0.633274 -0.052892
			-0.083040  0.592946 -0.800949
			-0.585945  0.674427 -0.449241
			-0.770292  0.583236 -0.257850
			-0.801117  0.582557 -0.137255
			-0.796428  0.596586 -0.098935
			 0.643764  0.539607 -0.542579
			 0.713991  0.576101 -0.397900
			 0.804584  0.508607 -0.306533
			 0.850054  0.516120 -0.105012
			 0.841407  0.538755 -0.042156
			 0.507655  0.494326 -0.705640
			 0.168250  0.600068 -0.782055
			 0.023357  0.999698  0.007626
			 0.546479  0.837468 -0.002817
			-0.461658  0.886165 -0.039788
			 0.765206  0.643626 -0.014299
			-0.756302  0.639307 -0.138904
			 0.845106  0.534542 -0.007800
			-0.231389  0.867091 -0.441149
			-0.651798  0.741671 -0.158381
			-0.774330  0.618031 -0.135834
			-0.860572  0.495442 -0.118126
			-0.914494  0.399245 -0.065610
			-0.902960  0.399611 -0.158029
			 0.703509  0.485885 -0.518642
			 0.630326  0.449775 -0.632765
			 0.877229  0.382382 -0.290264
			 0.743077  0.429285 -0.513373
			 0.918159  0.383427 -0.099835
			 0.922671  0.384452 -0.029586
			 0.918892  0.394506  0.001384
			 0.508123  0.487398 -0.710108
			 0.363930  0.625833 -0.689846
			 0.028223  0.996442  0.079419
			 0.529969  0.846722  0.046856
			-0.404545  0.914501  0.005579
			 0.759284  0.650074  0.029872
			-0.649559  0.756765 -0.073343
			 0.851182  0.522202  0.052856
			-0.903854  0.348153 -0.248670
			-0.869253  0.461095 -0.178299
			 0.908908  0.410665  0.072389
			 0.241221  0.719239 -0.651542
			-0.234715  0.822584 -0.517943
			-0.604396  0.785687 -0.131911
			-0.639362  0.765573 -0.071520
			-0.779156  0.625572  0.039692
			-0.873415  0.485721  0.034955
			-0.901834  0.431634 -0.019710
			-0.924561  0.351295 -0.147573
			 0.693368  0.415462 -0.588755
			 0.590612  0.446207 -0.672367
			 0.951753  0.184235 -0.245405
			 0.828909  0.321252 -0.457938
			 0.975625  0.210585 -0.061720
			 0.976877  0.211981 -0.027841
			 0.976371  0.216097  0.001207
			 0.973350  0.225200  0.043299
			 0.540750  0.465537 -0.700617
			 0.470100  0.499145 -0.727915
			 0.028896  0.975006  0.220294
			 0.479897  0.866102  0.139876
			-0.344182  0.933256  0.102819
			 0.751830  0.643435  0.144023
			-0.604974  0.796236  0.003866
			 0.842090  0.518170  0.149616
			-0.842454  0.532425 -0.082434
			 0.872823  0.443022  0.204722
			-0.929376  0.270033 -0.251678
			-0.923510  0.289873 -0.251203
			-0.937355  0.305122 -0.168123
			 0.957341  0.254138  0.137521
			 0.249638  0.539980 -0.803805
			-0.059724  0.487313 -0.871183
			-0.579685  0.581675 -0.570630
			-0.757519  0.640220 -0.127603
			-0.797357  0.602489  0.035056
			-0.825237  0.554748  0.106013
			-0.817891  0.564846  0.109559
			-0.829296  0.555480  0.060915
			-0.832243  0.551562 -0.056138
			-0.875763  0.455699 -0.159301
			 0.813458  0.418023 -0.404404
			 0.616381  0.491800 -0.614985
			 0.562198  0.485402 -0.669566
			 0.936937  0.180225 -0.299445
			 0.983377  0.148248 -0.104848
			 0.983979  0.174412 -0.036950
			 0.984728  0.174048 -0.004177
			 0.986844  0.158628  0.031244
			 0.983730  0.141060  0.111255
			 0.509547  0.455648 -0.729895
			 0.380255  0.374731 -0.845567
			 0.348207  0.892087  0.287979
			 0.065958  0.924568  0.375264
			-0.153370  0.942380  0.297316
			 0.676103  0.693161  0.249826
			-0.523709  0.845701  0.102565
			 0.844573  0.455435  0.281559
			-0.790174  0.612502 -0.021599
			-0.905355  0.396845 -0.151150
			 0.822376  0.465980  0.326436
			 0.826862  0.478836  0.294985
			 0.931909  0.307012  0.193104
			-0.900834  0.381866 -0.206582
			-0.905626  0.383667 -0.180666
			 0.971757  0.049475  0.230737
			 0.109502  0.290831 -0.950488
			-0.420182  0.239855 -0.875167
			-0.874746  0.369517 -0.313492
			-0.906531  0.421899 -0.014256
			-0.880784  0.468873  0.066166
			-0.877452  0.474910  0.067368
			-0.826501  0.561738  0.036705
			-0.824285  0.563511 -0.054863
			-0.817530  0.559534 -0.136259
			 0.580013  0.583826 -0.568096
			 0.743747  0.559644 -0.365567
			 0.876235  0.449894 -0.172650
			 0.936839  0.316564 -0.148729
			 0.536630  0.552937 -0.637409
			 0.483036  0.539959 -0.689290
			 0.963171  0.263784 -0.052154
			 0.969070  0.246742 -0.004628
			 0.978438  0.200540  0.049433
			 0.986096  0.116019  0.118971
			 0.973354  0.057645  0.221945
			 0.367068  0.391327 -0.843874
			 0.186760  0.217981 -0.957917
			 0.296946  0.864078  0.406439
			 0.060246  0.893258  0.445490
			 0.084857  0.889964  0.448066
			-0.301201  0.920875  0.247523
			 0.716549  0.606974  0.343714
			-0.708061  0.701896  0.077405
			 0.808979  0.410627  0.420640
			 0.841863  0.432001  0.323483
			-0.843542  0.533832 -0.058826
			-0.893265  0.393227 -0.217831
			-0.875902  0.447424 -0.180577
			 0.821589  0.430546  0.373660
			 0.847596  0.355708  0.393768
			 0.949331  0.088089  0.301681
			-0.829052  0.542957 -0.133676
			-0.851693  0.496209 -0.168510
			 0.933747 -0.014631  0.357636
			 0.904677  0.067511  0.420716
			-0.092913  0.116546 -0.988830
			-0.843183  0.093804 -0.529380
			-0.547129 -0.028043 -0.836579
			-0.982001  0.144362 -0.121792
			-0.972755  0.231831  0.001017
			-0.984368  0.175214  0.017863
			-0.962305  0.270083  0.031989
			-0.933698  0.351764 -0.066864
			-0.884285  0.435876 -0.167485
			-0.829867  0.539692 -0.141610
			 0.574018  0.584843 -0.573116
			 0.442892  0.543481 -0.713074
			 0.750030  0.601053 -0.276026
			 0.588777  0.603556 -0.537645
			 0.873388  0.477432 -0.096190
			 0.933503  0.355764 -0.044773
			 0.964290  0.264245 -0.017896
			 0.334700  0.442676 -0.831874
			 0.979566  0.199235  0.027477
			 0.981934  0.175460  0.070847
			 0.981757  0.075489  0.174515
			 0.963555 -0.007879  0.267396
			 0.143968  0.274098 -0.950865
			-0.080383  0.066976 -0.994511
			 0.362401  0.755607  0.545640
			 0.142316  0.819299  0.555424
			 0.185517  0.886108  0.424730
			 0.325204  0.756262  0.567724
			-0.285240  0.884380  0.369473
			-0.646058  0.735614  0.203669
			 0.669939  0.503280  0.545794
			-0.762983  0.641724  0.077758
			 0.817827  0.443106  0.367173
			 0.485777  0.605962  0.629945
			 0.711871  0.493929  0.499274
			-0.826697  0.560028 -0.054234
			-0.850145  0.488716 -0.195985
			-0.860066  0.467625 -0.203993
			-0.867117  0.474644 -0.151069
			 0.863959  0.330333  0.380072
			-0.829265  0.542982 -0.132251
			 0.885815 -0.116851  0.449086
			 0.885266 -0.115176  0.450597
			 0.902777 -0.102726  0.417662
			 0.884667  0.137158  0.445591
			 0.894357 -0.120346  0.430862
			-0.938699 -0.052474 -0.340722
			-0.428836  0.039361 -0.902524
			-0.854507  0.025548 -0.518811
			-0.997637  0.013374 -0.067390
			-0.999976 -0.004326 -0.005331
			-0.999595 -0.022814  0.017005
			-0.995045  0.056803 -0.081601
			-0.966297  0.176470 -0.187425
			-0.938063  0.183670 -0.293775
			-0.938472  0.290499 -0.186766
			-0.934326  0.332009 -0.129636
			 0.433246  0.560719 -0.705614
			 0.265088  0.444373 -0.855722
			 0.466069  0.681781 -0.563874
			 0.669861  0.691779 -0.269679
			 0.849343  0.524406 -0.060127
			 0.872727  0.488183 -0.004968
			 0.438311  0.594367 -0.674249
			 0.938114  0.331401  0.100574
			 0.982665  0.167933  0.078537
			 0.993598  0.042515  0.104668
			 0.993723 -0.025314  0.108971
			 0.965858 -0.119149  0.230050
			 0.937960 -0.126045  0.323024
			 0.927772 -0.125579  0.351382
			-0.110534  0.188529 -0.975827
			 0.013500  0.437698 -0.899021
			 0.018377  0.854412  0.519270
			 0.379087  0.749932  0.542121
			 0.513875  0.594920  0.618063
			 0.530727  0.584472  0.613777
			-0.463818  0.790548  0.399883
			-0.654115  0.727714  0.206315
			-0.728437  0.681786  0.067437
			 0.787506  0.395718  0.472485
			 0.640510  0.466573  0.609964
			-0.850103  0.524942 -0.041960
			-0.863126  0.481317 -0.152799
			-0.882567  0.440021 -0.165701
			-0.907242  0.409713 -0.095114
			-0.923815  0.363945 -0.118787
			 0.856314 -0.181386  0.483555
			 0.881708 -0.163016  0.442738
			 0.885605 -0.164296  0.434409
			 0.761125  0.281375  0.584394
			 0.855655 -0.012453  0.517397
			 0.881009 -0.101109  0.462169
			-0.987128  0.021189 -0.158522
			-0.322155  0.091661 -0.942239
			-0.766077 -0.027001 -0.642182
			-0.571428 -0.066238 -0.817974
			-0.954244  0.028164 -0.297700
			-0.999676  0.025175  0.003793
			-0.999551  0.011875  0.027519
			-0.996774 -0.028882 -0.074881
			-0.970833  0.016684 -0.239176
			-0.972595  0.022510 -0.231415
			-0.958055 -0.009216 -0.286435
			-0.987425 -0.013790 -0.157487
			-0.980273  0.119922 -0.157110
			 0.235145  0.615687 -0.752088
			 0.362954  0.804409 -0.470309
			 0.162957  0.758658 -0.630780
			 0.371369  0.850559 -0.372335
			 0.678696  0.717099 -0.158557
			 0.817730  0.570462 -0.076754
			 0.855165  0.518051  0.017780
			 0.897895  0.413123  0.152033
			 0.911779  0.335162  0.237332
			 0.958392  0.215823  0.186830
			 0.972470  0.038991  0.229742
			 0.969466 -0.149388  0.194473
			 0.954260 -0.241613  0.176097
			 0.914271 -0.263630  0.307583
			 0.917657 -0.213196  0.335339
			-0.237549  0.297393 -0.924731
			 0.001193  0.627528 -0.778593
			-0.199581  0.516313 -0.832819
			 0.067575  0.877006  0.475703
			 0.533722  0.673129  0.511897
			 0.687045  0.490477  0.536099
			 0.664961  0.399663  0.630949
			-0.482028  0.850118  0.212011
			-0.681634  0.728886  0.064039
			-0.832474  0.554063  0.001226
			-0.913090  0.406648 -0.030065
			-0.927536  0.355675 -0.114768
			-0.941363  0.332132 -0.059360
			-0.967387  0.192344 -0.164820
			 0.897405 -0.099032  0.429950
			 0.883094 -0.101240  0.458143
			 0.914053 -0.063429  0.400605
			 0.890085 -0.099431  0.444817
			 0.899870 -0.164464  0.403962
			 0.793817  0.142631  0.591195
			 0.850508  0.082185  0.519501
			 0.899663 -0.059778  0.432474
			 0.874198  0.052553  0.482718
			-0.994109  0.086387 -0.065461
			-0.436990  0.118967 -0.891564
			-0.821675 -0.124667 -0.556155
			-0.635206  0.088554 -0.767250
			-0.759466 -0.047675 -0.648797
			-0.936476  0.083355 -0.340683
			-0.990381  0.128489  0.051349
			-0.981417  0.191884 -0.000689
			-0.990024  0.117516 -0.077736
			-0.958857  0.008176 -0.283773
			-0.965379  0.087383 -0.245780
			-0.985328 -0.050169 -0.163129
			-0.977723 -0.069830 -0.197942
			-0.965818 -0.026921 -0.257820
			 0.095540  0.651394 -0.752700
			 0.211173  0.839343 -0.500909
			 0.049429  0.833637 -0.550096
			-0.086495  0.784456 -0.614123
			-0.073269  0.653603 -0.753282
			 0.300399  0.908929 -0.289152
			 0.060952  0.893211 -0.445487
			 0.618287  0.765162 -0.179579
			 0.822176  0.569221  0.003765
			 0.890190  0.455578 -0.003283
			 0.913560  0.401992  0.061724
			 0.932166  0.317679  0.173631
			 0.867137  0.422125  0.264355
			 0.924484  0.309100  0.223131
			 0.891673  0.326737  0.313307
			 0.940011  0.172141  0.294527
			 0.934572  0.090072  0.344183
			 0.954421  0.001968  0.298457
			 0.938667 -0.167661  0.301320
			 0.920052 -0.259106  0.293885
			 0.915637 -0.234560  0.326482
			-0.461190  0.359920 -0.811025
			-0.325136  0.548192 -0.770566
			 0.476073  0.770331  0.424200
			-0.075828  0.963633  0.256245
			 0.690865  0.550318  0.468888
			 0.774426  0.286430  0.564112
			 0.798525  0.352962  0.487623
			-0.572039  0.812653  0.111205
			-0.806573  0.589752  0.040399
			-0.909441  0.415833 -0.000311
			-0.938589  0.344287 -0.022724
			-0.963926  0.250588 -0.089736
			-0.958565  0.278293 -0.060881
			-0.968801  0.020452 -0.246996
			-0.990443  0.077928 -0.113797
			 0.918038 -0.041415  0.394323
			 0.911550 -0.017151  0.410830
			 0.922521 -0.116504  0.367943
			 0.904839 -0.036215  0.424210
			 0.913793 -0.001290  0.406179
			 0.909888  0.006616  0.414801
			 0.864624  0.204799  0.458783
			 0.880496 -0.035227  0.472744
			-0.979247  0.199247 -0.037098
			-0.735190  0.072720 -0.673949
			-0.661616  0.265055 -0.701434
			-0.713593  0.141544 -0.686113
			-0.812851  0.012656 -0.582334
			-0.930962  0.039104 -0.363016
			-0.981331  0.148790 -0.121861
			-0.965047  0.262010  0.006001
			-0.933852  0.348758 -0.079301
			-0.934639  0.327771 -0.137898
			-0.952708  0.239778 -0.186692
			-0.953391  0.284480 -0.100588
			-0.965476  0.196323 -0.171209
			-0.964321  0.100360 -0.244976
			-0.955443 -0.004124 -0.295147
			-0.070762  0.843203 -0.532918
			-0.261423  0.782006 -0.565796
			-0.291189  0.666523 -0.686262
			 0.316171  0.880693 -0.352726
			 0.054444  0.932276 -0.357627
			-0.197439  0.897271 -0.394870
			 0.480188  0.800288 -0.359108
			 0.695085  0.682506 -0.225926
			 0.815166  0.575365 -0.066782
			 0.909991  0.410345  0.059435
			 0.942078  0.311413  0.124543
			 0.960912  0.244500  0.129877
			 0.960212  0.183653  0.210390
			 0.947097  0.134710  0.291307
			 0.874608  0.326896  0.358050
			 0.939530  0.137061  0.313842
			 0.913113  0.124634  0.388189
			 0.926637  0.110965  0.359209
			 0.933635  0.109762  0.340995
			 0.937064  0.065037  0.343047
			 0.915937  0.027272  0.400394
			 0.947204 -0.048059  0.317011
			 0.964247 -0.062906  0.257429
			-0.514178  0.405829 -0.755595
			-0.518995  0.481164 -0.706488
			 0.456677  0.810274  0.367290
			 0.674904  0.590471  0.442548
			 0.171041  0.924767  0.339928
			-0.460342  0.879321  0.121985
			 0.768459  0.425971  0.477513
			-0.765474  0.641880  0.045158
			-0.899986  0.435708  0.013563
			-0.929831  0.367944 -0.005615
			-0.931049  0.360719 -0.055050
			-0.991972  0.085491 -0.093186
			-0.973649  0.138392 -0.181258
			-0.986293  0.003122 -0.164976
			-0.996513  0.016651 -0.081764
			 0.936281 -0.007190  0.351179
			 0.917437  0.090461  0.387460
			 0.935067  0.075710  0.346292
			 0.961726  0.090090  0.258780
			 0.904206  0.010549  0.426967
			 0.913801  0.106883  0.391847
			 0.767988  0.258355  0.586044
			 0.842373  0.033300  0.537865
			 0.866538  0.014696  0.498894
			 0.778871  0.041403  0.625815
			-0.959955  0.268437 -0.080178
			-0.753098  0.165208 -0.636828
			-0.791074  0.066887 -0.608053
			-0.724447  0.204576 -0.658275
			-0.690645  0.388451 -0.610013
			-0.738583  0.260539 -0.621783
			-0.946305 -0.045137 -0.320108
			-0.873988  0.092769 -0.477011
			-0.967080  0.135141 -0.215621
			-0.926791  0.341035 -0.157329
			-0.893077  0.422811 -0.153769
			-0.866315  0.489421 -0.099824
			-0.845116  0.520396 -0.122341
			-0.883407  0.442411 -0.154481
			-0.933326  0.285034 -0.218306
			-0.951180  0.249197 -0.182094
			-0.453627  0.671967 -0.585391
			-0.408566  0.808723 -0.423133
			 0.294090  0.865495 -0.405498
			-0.027518  0.930063 -0.366368
			-0.353504  0.882522 -0.310145
			 0.462418  0.786891 -0.408622
			 0.435579  0.824438 -0.361348
			 0.692938  0.704036 -0.155470
			 0.851445  0.522541 -0.044629
			 0.895559  0.444938  0.001890
			 0.969408  0.210904  0.125568
			 0.973710  0.153893  0.167944
			 0.967377  0.173513  0.184592
			 0.971609  0.156834  0.177139
			 0.953233  0.129133  0.273262
			 0.922503  0.116898  0.367863
			 0.914975  0.095525  0.392041
			 0.930923  0.081936  0.355907
			 0.934511  0.101519  0.341149
			 0.933312  0.099068  0.345129
			 0.916974  0.103489  0.385291
			 0.935240  0.143393  0.323672
			 0.963988  0.187662  0.188443
			 0.958073  0.249828  0.140295
			-0.619691  0.538776 -0.570705
			 0.611924  0.646029  0.456284
			 0.729187  0.436774  0.526797
			 0.517390  0.720537  0.461665
			-0.152630  0.961649  0.227892
			-0.715011  0.698509  0.029060
			-0.887845  0.460124 -0.004159
			-0.922214  0.386661 -0.003750
			-0.897248  0.440964 -0.022279
			-0.909154  0.401439 -0.110843
			-0.992424 -0.021859 -0.120902
			-0.942927 -0.191559 -0.272386
			-0.961287  0.006757 -0.275467
			-0.970606  0.226204 -0.082193
			-0.976466  0.208007 -0.056990
			 0.947632  0.150218  0.281829
			 0.915427  0.255499  0.310990
			 0.920989  0.349832  0.171455
			 0.882876  0.058567  0.465939
			 0.867052  0.209389  0.452081
			 0.741585  0.204115  0.639053
			 0.812173  0.036663  0.582263
			 0.852957  0.042850  0.520219
			 0.881840  0.038211  0.469997
			 0.691425  0.112523  0.713632
			 0.725504  0.110501  0.679289
			-0.960014  0.224073 -0.167823
			-0.778882  0.247964 -0.576070
			-0.802520  0.167528 -0.572623
			-0.764609  0.327761 -0.554929
			-0.741804  0.472820 -0.475572
			-0.951750  0.097114 -0.291104
			-0.933453  0.000385 -0.358700
			-0.832423  0.121116 -0.540742
			-0.891527  0.034960 -0.451616
			-0.980102  0.092248 -0.175754
			-0.948121  0.239921 -0.208579
			-0.930069  0.302267 -0.208821
			-0.885549  0.407384 -0.223252
			-0.825489  0.548424 -0.133413
			-0.825908  0.553673 -0.106400
			-0.860983  0.495653 -0.114180
			-0.895143  0.440540 -0.068138
			-0.595040  0.681967 -0.425262
			-0.486711  0.807153 -0.334090
			 0.269720  0.828449 -0.490839
			 0.357443  0.800442 -0.481173
			 0.117382  0.816687 -0.565016
			-0.226642  0.841260 -0.490831
			 0.324406  0.904026 -0.278385
			 0.152242  0.868231 -0.472227
			 0.627171  0.764567 -0.148641
			 0.874742  0.483836  0.026999
			 0.908135  0.418676  0.001228
			 0.958268  0.261320  0.115910
			 0.986999  0.064574  0.147183
			 0.980149  0.039694  0.194248
			 0.982730  0.067171  0.172423
			 0.973837  0.116368  0.195192
			 0.964847  0.075785  0.251650
			 0.933509  0.110475  0.341110
			 0.910344  0.132219  0.392163
			 0.919194  0.125605  0.373236
			 0.932175  0.075962  0.353948
			 0.935349  0.083970  0.343615
			 0.928658  0.211373  0.304820
			 0.936488  0.155739  0.314223
			 0.934755  0.327286  0.138267
			 0.918328  0.390070  0.067222
			 0.886989  0.460425  0.035474
			 0.714735  0.448447  0.536702
			 0.498230  0.757935  0.421072
			 0.762958  0.343792  0.547451
			 0.039754  0.904815  0.423945
			-0.664503  0.745337  0.053932
			-0.886959  0.458380 -0.056492
			-0.926505  0.375924 -0.016430
			-0.888815  0.458265  0.001045
			-0.879009  0.476210 -0.023825
			-0.979614  0.181994 -0.085054
			-0.987135  0.133159 -0.088507
			-0.883319 -0.405572 -0.235071
			-0.993440 -0.068059 -0.091901
			-0.937425 -0.320308 -0.136519
			-0.906114  0.421539 -0.035514
			-0.915375  0.401544 -0.029156
			 0.863110  0.439491  0.248774
			 0.818310  0.396233  0.416375
			 0.826838  0.549247  0.121108
			 0.883509  0.107916  0.455813
			 0.858295  0.167633  0.485004
			 0.813314  0.310410  0.492104
			 0.744759 -0.012088  0.667224
			 0.811037  0.082195  0.579192
			 0.735633  0.096171  0.670519
			 0.867622  0.084564  0.489980
			 0.612829 -0.014246  0.790087
			 0.637056  0.202294  0.743799
			-0.971607  0.127442 -0.199347
			-0.806493  0.230635 -0.544406
			-0.839464  0.227077 -0.493697
			-0.782058  0.499635 -0.372492
			-0.878913  0.285885 -0.381814
			-0.969495 -0.019351 -0.244346
			-0.930506 -0.106864 -0.350342
			-0.893787 -0.071149 -0.442813
			-0.869247 -0.027959 -0.493586
			-0.863260 -0.083650 -0.497780
			-0.976931  0.061639 -0.204466
			-0.959362  0.167838 -0.226837
			-0.937942  0.209083 -0.276675
			-0.908002  0.245913 -0.339204
			-0.908817  0.352327 -0.223420
			-0.903308  0.410293 -0.125279
			-0.890487  0.446873 -0.085661
			-0.892159  0.448398 -0.054698
			-0.901426  0.431951 -0.029141
			-0.630377  0.631697 -0.451202
			-0.473996  0.675614 -0.564689
			 0.235915  0.767336 -0.596271
			 0.045110  0.724736 -0.687549
			-0.217622  0.644894 -0.732634
			 0.305979  0.913572 -0.267887
			 0.036558  0.943724 -0.328708
			 0.060060  0.772682 -0.631946
			-0.164496  0.858557 -0.485613
			 0.491207  0.839864 -0.230962
			 0.759145  0.628832 -0.168137
			 0.855601  0.517376 -0.016432
			 0.970476  0.178626  0.162080
			 0.986439  0.111966  0.120008
			 0.982937 -0.020100  0.182842
			 0.991420 -0.022175  0.128822
			 0.976462 -0.115147  0.182380
			 0.989992  0.016269  0.140182
			 0.980201  0.049090  0.191822
			 0.975181  0.094839  0.200070
			 0.954219  0.157559  0.254247
			 0.920718  0.196107  0.337372
			 0.881820  0.223177  0.415434
			 0.912314  0.157456  0.378010
			 0.945433  0.130531  0.298525
			 0.948426  0.162178  0.272373
			 0.944868  0.286893  0.157852
			 0.909272  0.414853  0.033497
			 0.878930  0.476287 -0.025174
			 0.845223  0.532723 -0.042485
			 0.750298  0.655525 -0.085676
			 0.614836  0.493778  0.614948
			 0.758730  0.051428  0.649372
			 0.327175  0.626897  0.707076
			-0.327481  0.787928  0.521466
			-0.900536  0.429030 -0.070483
			-0.830155  0.508137  0.229433
			-0.964151  0.263680 -0.029758
			-0.907564  0.410056  0.090450
			-0.870788  0.486222  0.072910
			-0.984491  0.175415 -0.002715
			-0.930570 -0.364840 -0.030522
			-0.929810  0.366419 -0.034512
			-0.877502 -0.477599 -0.043466
			-0.999239  0.038968 -0.001710
			-0.914777  0.403559 -0.017951
			-0.907394  0.419960 -0.016426
			-0.911090  0.411740 -0.019622
			 0.727462  0.602146  0.328967
			 0.721949  0.498921  0.479445
			 0.648002  0.756793  0.085773
			 0.848025  0.207922  0.487466
			 0.699153  0.355212  0.620491
			 0.689714 -0.255866  0.677367
			 0.721576  0.101564  0.684846
			 0.769898  0.096680  0.630801
			 0.834928  0.011973  0.550228
			 0.626819  0.211759  0.749837
			 0.637774  0.109283  0.762431
			 0.787268  0.026856  0.616025
			 0.498108  0.203996  0.842777
			 0.183243 -0.401966  0.897132
			-0.956748  0.124295 -0.263028
			-0.927524 -0.074267 -0.366311
			-0.761848  0.369796 -0.531826
			-0.873533  0.133138 -0.468203
			-0.851816  0.174189 -0.494032
			-0.931626 -0.019256 -0.362907
			-0.925029  0.056922 -0.375608
			-0.954739  0.142201 -0.261253
			-0.891718 -0.188081 -0.411662
			-0.882465 -0.075344 -0.464305
			-0.874368 -0.169215 -0.454805
			-0.856682 -0.204557 -0.473553
			-0.926010  0.173080 -0.335482
			-0.936190  0.182321 -0.300511
			-0.919125  0.160360 -0.359853
			-0.956456  0.206017 -0.206756
			-0.939811  0.302615 -0.158679
			-0.932337  0.353436 -0.076364
			-0.932643  0.359402 -0.031742
			-0.935374  0.353381 -0.014049
			-0.613667  0.454926 -0.645333
			-0.685694  0.214350 -0.695613
			-0.447162  0.492179 -0.746864
			-0.196665  0.667049 -0.718588
			 0.202770  0.934680 -0.291989
			-0.120183  0.878637 -0.462119
			-0.324654  0.714882 -0.619309
			-0.421070  0.674724 -0.606175
			 0.502516  0.758644 -0.414654
			 0.693196  0.521261 -0.497761
			 0.931724  0.351243 -0.092297
			 0.938491  0.345287 -0.003328
			 0.955031 -0.123289  0.269658
			 0.994906  0.007117  0.100552
			 0.966974 -0.093276  0.237195
			 0.977637 -0.136171  0.160260
			 0.995065 -0.008444  0.098861
			 0.995417  0.052030  0.080242
			 0.983174 -0.096872  0.154873
			 0.984788  0.122971  0.122759
			 0.974082  0.165507  0.154182
			 0.943957  0.317923  0.088713
			 0.880569  0.423076  0.213551
			 0.804718  0.386687  0.450447
			 0.751781  0.505803  0.423070
			 0.908542  0.277595  0.312239
			 0.947112  0.224464  0.229336
			 0.988055  0.150852  0.031488
			 0.925134  0.371565 -0.077889
			 0.863042  0.493065 -0.109748
			 0.768830  0.605151 -0.206624
			 0.651681  0.722960 -0.229434
			 0.595442  0.791727 -0.136445
			 0.644815  0.183023  0.742102
			 0.235736  0.516593  0.823140
			-0.340035  0.610643  0.715186
			-0.982492  0.183119  0.034305
			-0.946683  0.036138  0.320132
			-0.919767 -0.002122  0.392458
			-0.749960  0.524412  0.403177
			-0.976939  0.200511  0.073388
			-0.920046 -0.391806  0.001983
			-0.889406 -0.457112 -0.002393
			-0.904274  0.423944 -0.050592
			-0.996472  0.065717  0.052209
			-0.869820  0.493008 -0.018882
			-0.866350  0.487600 -0.108089
			-0.935951  0.351787 -0.015554
			-0.923827  0.378811 -0.055184
			 0.593681  0.659257  0.461435
			 0.474692  0.808898  0.346916
			 0.617828  0.585562  0.524791
			 0.458356  0.886805  0.059044
			 0.658834  0.213029  0.721496
			 0.549480  0.434720  0.713506
			 0.530162  0.506256  0.680171
			 0.588778  0.104076  0.801566
			 0.630255 -0.531802  0.565655
			 0.713254  0.148814  0.684926
			 0.579503  0.277175  0.766388
			 0.786060 -0.107109  0.608800
			 0.763749 -0.027136  0.644943
			 0.770010 -0.181260  0.611743
			 0.692180  0.071030  0.718221
			 0.195935  0.292708  0.935912
			-0.438775  0.134670  0.888449
			-0.673651 -0.606779  0.421916
			-0.476032 -0.756648  0.448193
			-0.931709  0.216689 -0.291488
			-0.922482  0.200285 -0.330020
			-0.874899 -0.330346 -0.354150
			-0.878503 -0.281761 -0.385803
			-0.760916 -0.015985 -0.648653
			-0.769960 -0.160265 -0.617638
			-0.843690 -0.153348 -0.514463
			-0.862771  0.070472 -0.500659
			-0.910547  0.215730 -0.352654
			-0.920056  0.274854 -0.279199
			-0.864596 -0.265466 -0.426616
			-0.852158 -0.158493 -0.498706
			-0.821140 -0.057993 -0.567773
			-0.857191 -0.280950 -0.431613
			-0.795494 -0.361732 -0.486148
			-0.792302 -0.416858 -0.445518
			-0.925036  0.162224 -0.343498
			-0.935479  0.177877 -0.305350
			-0.937307  0.226744 -0.264657
			-0.943496  0.252180 -0.214988
			-0.954060  0.275193 -0.118485
			-0.951728  0.302382 -0.052707
			-0.946899  0.320706 -0.023015
			-0.940649  0.338963 -0.016836
			-0.644778  0.278409 -0.711864
			-0.753450 -0.024301 -0.657056
			-0.736494 -0.185038 -0.650644
			-0.463928  0.520136 -0.717098
			-0.669574  0.229281 -0.706470
			 0.162006  0.762001 -0.626984
			-0.076168  0.585375 -0.807177
			-0.263310  0.497079 -0.826789
			-0.523498  0.488545 -0.698050
			-0.694499  0.301435 -0.653306
			 0.339528  0.483371 -0.806891
			 0.876615  0.226025 -0.424804
			 0.620564  0.296428 -0.725969
			 0.994981 -0.086835 -0.049714
			 0.953288 -0.246828  0.174119
			 0.920201 -0.275573  0.278008
			 0.955258 -0.166367  0.244550
			 0.951839 -0.300947  0.058597
			 0.997790 -0.023167  0.062274
			 0.997574  0.067775  0.015919
			 0.982845  0.184175  0.009752
			 0.988027 -0.119910  0.097081
			 0.941639  0.333742  0.043970
			 0.891923  0.450896 -0.034143
			 0.817228  0.570714 -0.080146
			 0.675253  0.691609  0.256340
			 0.704977  0.525044  0.476797
			 0.795907  0.412913  0.442759
			 0.627805  0.580432  0.518613
			 0.916871  0.209723  0.339653
			 0.978502  0.132056  0.158414
			 0.979667  0.114066 -0.165052
			 0.920696  0.208860 -0.329692
			 0.832551  0.463906 -0.302737
			 0.740886  0.557718 -0.374218
			 0.693738  0.648706 -0.312902
			 0.638977  0.712727 -0.289359
			 0.498034  0.831595 -0.245789
			 0.415219  0.267795  0.869413
			-0.742180  0.171722  0.647827
			-0.253767  0.349902  0.901760
			-0.948514  0.205496  0.241024
			-0.832093 -0.550585  0.066912
			-0.830216 -0.546570  0.109553
			-0.890597  0.437123 -0.125544
			-0.925356  0.082685  0.369973
			-0.812247  0.577807  0.079956
			-0.781214  0.620349 -0.069802
			-0.859062  0.478829 -0.180927
			-0.840073  0.511026 -0.182015
			-0.932257  0.357250 -0.057187
			-0.900132  0.400718 -0.170845
			 0.492836  0.727557  0.477257
			 0.325085  0.834589  0.444726
			 0.227773  0.930489  0.286897
			 0.425461  0.690390  0.585102
			 0.249278  0.967625 -0.039531
			 0.597688  0.367479  0.712551
			 0.510266  0.462489  0.725074
			 0.443482  0.521780  0.728746
			 0.090395 -0.562473  0.821860
			 0.682764  0.143153  0.716477
			 0.689047  0.046772  0.723206
			 0.084115  0.617924  0.781726
			 0.527244  0.374600  0.762685
			 0.750843 -0.276274  0.599923
			 0.718430 -0.197800  0.666883
			 0.717254 -0.170951  0.675516
			 0.624654  0.127570  0.770411
			 0.515125  0.366154  0.774969
			-0.582953  0.465022  0.666273
			-0.759187  0.173608  0.627292
			-0.378120 -0.805927  0.455530
			 0.226664 -0.692285  0.685102
			-0.897462  0.299644 -0.323689
			-0.904932  0.290304 -0.311162
			-0.761808 -0.379369 -0.525098
			-0.782829 -0.464938 -0.413535
			-0.743315 -0.333509 -0.579875
			-0.829091 -0.015477 -0.558900
			-0.898297  0.070273 -0.433733
			-0.904527  0.213912 -0.368881
			-0.787004 -0.421496 -0.450517
			-0.795827 -0.277954 -0.537960
			-0.818596 -0.082014 -0.568484
			-0.797197 -0.139238 -0.587444
			-0.799266 -0.056017 -0.598361
			-0.718869 -0.506566 -0.476045
			-0.784398 -0.507569 -0.356501
			-0.703275 -0.542978 -0.458890
			-0.914809  0.281640 -0.289488
			-0.928358  0.248424 -0.276472
			-0.938918  0.210608 -0.272173
			-0.944594  0.255462 -0.206111
			-0.954967  0.279520 -0.099532
			-0.948056  0.312664 -0.058581
			-0.925176  0.376420 -0.048550
			-0.899696  0.433870 -0.047989
			-0.810263 -0.047841 -0.584111
			-0.789163 -0.174906 -0.588753
			-0.806011 -0.237832 -0.542017
			 0.063650  0.567271 -0.821068
			-0.491614  0.329927 -0.805893
			-0.284308  0.440261 -0.851669
			-0.689337  0.201650 -0.695810
			-0.810434  0.047324 -0.583916
			 0.758314 -0.034994 -0.650950
			 0.917816 -0.212515 -0.335338
			 0.304432  0.505891 -0.807091
			 0.673434  0.139329 -0.725999
			 0.819234 -0.212005 -0.532832
			 0.799621 -0.239896 -0.550505