<?xml version="1.0"?>
<VTKFile type="PolyData" version="0.1" byte_order="LittleEndian" compressor="vtkZLibDataCompressor">
	<PolyData>
		<Piece NumberOfPoints="2510" NumberOfVerts="0" NumberOfLines="0" NumberOfStrips="0" NumberOfPolys="5016">
		<PointData Normals="Normals">
		<DataArray type="Float32" Name="Normals" NumberOfComponents="3" format="ascii">
			 0.415857  0.894806 -0.162435
			 0.636175  0.713206 -0.294310
			 0.507320  0.762672 -0.401196
			 0.397755  0.913364  0.086933
			 0.674610  0.736398 -0.051175
			 0.286906  0.903132 -0.319433
			 0.109894  0.993022 -0.042792
			 0.066614  0.994187  0.084591
			 0.499696  0.780833 -0.374972
			 0.668298  0.729336 -0.146445
			 0.425420  0.767347 -0.479787
			 0.325855  0.744721  0.582416
			 0.651370  0.719269  0.241599
			 0.000282  0.866473  0.499224
			 0.728742  0.683672  0.039090
			 0.287169  0.818817 -0.497064
			 0.139928  0.958992 -0.246486
			 0.009977  0.999420 -0.032554
			-0.228220  0.963280  0.141448
			-0.231773  0.900920  0.366913
			 0.553512  0.790899 -0.260967
			 0.401960  0.800284 -0.444943
			 0.356553  0.789989 -0.498786
			 0.707681  0.699148 -0.101879
			 0.726736  0.686739 -0.015625
			 0.408970  0.520346  0.749656
			 0.090078  0.478297  0.873566
			 0.668535  0.628436  0.397653
			 0.098468  0.742445  0.662631
			 0.716214  0.667522  0.203597
			 0.353719  0.808274 -0.470719
			 0.315970  0.825649 -0.467404
			 0.041843  0.919548 -0.390744
			-0.286682  0.956651 -0.051312
			-0.304377  0.941442  0.145058
			-0.587913  0.740173  0.326347
			-0.481439  0.845737  0.230100
			-0.236086  0.890176  0.389680
			 0.666058  0.677235 -0.312599
			 0.551367  0.713582 -0.432198
			 0.448587  0.757793 -0.473835
			 0.318051  0.819925 -0.475991
			 0.387873  0.822461 -0.416068
			 0.407680  0.849887 -0.333901
			 0.672651  0.723784 -0.153876
			 0.759066  0.649882 -0.038379
			 0.786959  0.613283  0.067670
			 0.509204  0.647206  0.567306
			 0.221143  0.640613  0.735330
			 0.259603  0.706118  0.658790
			 0.451860  0.787025  0.420017
			 0.211813  0.953361  0.215030
			 0.675504  0.697695  0.238573
			 0.281135  0.813024 -0.509859
			 0.091770  0.945380 -0.312785
			-0.191001  0.867845 -0.458654
			-0.486801  0.856742 -0.170345
			-0.542903  0.835936  0.080417
			-0.555090  0.767482  0.320698
			-0.722041  0.672987  0.160452
			-0.796674  0.366628  0.480514
			-0.949701  0.226534  0.216219
			-0.498203  0.866998  0.010448
			 0.519645  0.777466 -0.354282
			 0.355936  0.890466 -0.283514
			 0.342818  0.904656 -0.253126
			 0.490333  0.854499 -0.171478
			 0.422474  0.904217 -0.062504
			 0.544403  0.805465 -0.234203
			 0.717118  0.692865 -0.075359
			 0.731970  0.681202 -0.013535
			 0.812425  0.566046  0.139848
			 0.902418  0.403532  0.151007
			 0.301384  0.895605  0.327200
			 0.228299  0.914748  0.333339
			 0.396989  0.876688  0.271694
			 0.522676  0.845694  0.107757
			 0.405321  0.913534  0.034200
			-0.075665  0.996951 -0.019056
			 0.028414  0.999174  0.029038
			 0.621075  0.734560  0.273291
			 0.876151  0.438545  0.200092
			 0.059508  0.997870 -0.026712
			-0.437727  0.898255 -0.039147
			-0.564510  0.800817 -0.200049
			-0.710069  0.702202 -0.052100
			-0.769732  0.590848  0.241685
			-0.926916  0.001865  0.375265
			-0.857334 -0.159213  0.489519
			-0.912296  0.196375 -0.359378
			-0.818494 -0.451167  0.355690
			-0.885160 -0.446521  0.130810
			-0.930405 -0.323880 -0.171607
			-0.649404  0.686517 -0.327060
			 0.480078  0.840147 -0.252345
			 0.480692  0.868174 -0.123323
			 0.273144  0.957516 -0.092497
			 0.407428  0.911693 -0.053093
			 0.549387  0.834459  0.043037
			 0.376511  0.921124  0.098842
			 0.699625  0.664149 -0.263495
			 0.636465  0.668975 -0.383907
			 0.807597  0.530172 -0.258274
			 0.850587  0.521404 -0.068114
			 0.845505  0.528100  0.078934
			 0.812127  0.499933  0.300859
			 0.864157  0.393403  0.313796
			 0.958560  0.244656  0.145968
			 0.407745  0.901602  0.144424
			 0.243502  0.964263  0.104423
			 0.373377  0.924881  0.072004
			 0.530184  0.847817  0.010509
			 0.404902  0.914192 -0.017548
			 0.057988  0.998255  0.011188
			-0.494684  0.868010 -0.042955
			-0.450688  0.892668  0.004913
			 0.804089  0.539004  0.250831
			 0.675913  0.699504  0.232027
			 0.941460  0.317110  0.114434
			 0.034856  0.999389  0.002556
			-0.437247  0.899300 -0.008621
			-0.886946  0.461199  0.024941
			-0.911992  0.410122 -0.008363
			-0.944557  0.327109 -0.028481
			-0.955355  0.278250  0.099372
			-0.837172 -0.420927  0.349232
			-0.939537 -0.315286  0.133660
			-0.875665 -0.004952 -0.482893
			-0.870929 -0.311348 -0.380190
			-0.684680 -0.693268  0.224928
			-0.612001 -0.767215  0.191924
			-0.640175 -0.766592 -0.050132
			-0.702823 -0.615391 -0.356840
			-0.821560 -0.512066 -0.250653
			-0.933819  0.240253 -0.265067
			 0.653260  0.714491 -0.250507
			 0.516907  0.845119 -0.136311
			 0.752360  0.623779 -0.211789
			 0.306600  0.951720  0.015011
			 0.482293  0.869031  0.110354
			 0.579753  0.782515  0.227061
			 0.519131  0.828772  0.208903
			 0.176287  0.984338  0.000898
			 0.721079  0.618463 -0.312329
			 0.941016  0.294066 -0.167374
			 0.779223  0.549014 -0.302317
			 0.967720  0.244787 -0.059974
			 0.973250  0.229455  0.011577
			 0.932547  0.304119  0.194596
			 0.840795  0.391991  0.373372
			 0.840944  0.374704  0.390397
			 0.902625  0.367376  0.224284
			 0.919736  0.379934  0.098668
			 0.443217  0.895681  0.036248
			 0.662862  0.742907  0.093294
			 0.271071  0.962536  0.006695
			 0.375038  0.926966 -0.009014
			 0.498101  0.861252 -0.100700
			 0.333416  0.933786 -0.129911
			 0.056470  0.998390 -0.005274
			-0.437419  0.899245  0.004874
			-0.928951  0.365359 -0.059699
			-0.903695  0.427628 -0.021664
			 0.827649  0.551440  0.104455
			 0.951656  0.296098  0.081714
			 0.928753  0.333137  0.162598
			-0.024408  0.994289 -0.103894
			-0.446412  0.892493 -0.064589
			-0.877078  0.479625 -0.026349
			-0.994271  0.093051  0.052605
			-0.986669 -0.100325  0.128141
			-0.968195 -0.229219  0.100285
			-0.751013 -0.612726  0.246063
			-0.889923 -0.226150 -0.396098
			-0.852032 -0.420979 -0.311155
			-0.770502 -0.598063 -0.220561
			-0.560392 -0.760396  0.328266
			-0.525902 -0.840297  0.131632
			-0.583657 -0.769506 -0.259240
			-0.567931 -0.700358 -0.432380
			-0.622601 -0.709508 -0.330101
			-0.582481 -0.799293 -0.147807
			-0.957461 -0.203599 -0.204489
			 0.708370  0.650923 -0.272966
			 0.785449  0.562559 -0.258063
			 0.654664  0.699916 -0.285538
			 0.537522  0.842933 -0.023097
			 0.727600  0.584618 -0.358914
			 0.801384  0.536419 -0.264646
			 0.582399  0.772628  0.252701
			 0.398347  0.901500 -0.169168
			 0.658022  0.749047  0.077047
			 0.098903  0.939347 -0.328397
			 0.763202  0.600304 -0.239077
			 0.849950  0.455962 -0.263977
			 0.974977  0.171763 -0.141127
			 0.998385  0.006357 -0.056447
			 0.999619  0.024241 -0.013173
			 0.999858  0.014911 -0.007806
			 0.995298  0.063440  0.073198
			 0.923747  0.265496  0.276050
			 0.875921  0.394214  0.278132
			 0.905659  0.415359  0.085194
			 0.893839  0.429921  0.127358
			 0.532611  0.843306  0.071836
			 0.731205  0.659816  0.173151
			 0.285623  0.957817 -0.031718
			 0.822254  0.556094  0.121070
			 0.406629  0.906804 -0.111172
			 0.476707  0.840184 -0.258537
			 0.423329  0.893109 -0.152147
			 0.151494  0.987179 -0.050280
			-0.007192  0.999970 -0.002740
			-0.414731  0.909101  0.039165
			-0.879351  0.475918 -0.015606
			-0.974084 -0.159270 -0.160601
			-0.994967  0.067424 -0.074124
			 0.919961  0.339598  0.195820
			 0.980046  0.153567  0.126206
			 0.848963  0.424970  0.314105
			 0.899860  0.315638  0.301040
			-0.143976  0.896904 -0.418131
			-0.419712  0.872163 -0.251344
			-0.874483  0.473699 -0.104349
			-0.996847  0.077826  0.015451
			-0.923836 -0.364347  0.117378
			-0.822812 -0.525818  0.215628
			-0.835059 -0.487135  0.255687
			-0.649817 -0.717693  0.250308
			-0.599136 -0.732737  0.322695
			-0.851294 -0.483706 -0.203293
			-0.718383 -0.638263 -0.276668
			-0.583283 -0.792093 -0.179916
			-0.517494 -0.776976  0.358482
			-0.530621 -0.757959  0.379393
			-0.641233 -0.731141  0.232923
			-0.664699 -0.742739 -0.080706
			-0.594304 -0.734946 -0.326583
			-0.456509 -0.853830 -0.250147
			-0.387680 -0.907095 -0.163961
			 0.729417  0.607970 -0.313565
			 0.763260  0.598944 -0.242280
			 0.839413  0.477075 -0.260356
			 0.699588  0.692839 -0.174787
			 0.682187  0.720313 -0.125579
			 0.811489  0.500493 -0.301650
			 0.772190  0.535746 -0.341613
			 0.804835  0.502341 -0.316061
			 0.575918  0.758586 -0.304739
			 0.221261  0.836582 -0.501173
			 0.007632  0.847206 -0.531210
			 0.942502  0.274021 -0.191318
			 0.999682  0.014383 -0.020718
			 0.998862 -0.030326 -0.036820
			 0.998680 -0.050170 -0.011025
			 0.998864 -0.047533 -0.003332
			 0.999066 -0.042356  0.008515
			 0.997287  0.026079  0.068832
			 0.972801  0.202233  0.112957
			 0.976515  0.206499  0.061456
			 0.932882  0.285369  0.219764
			 0.651423  0.729582  0.208228
			 0.795252  0.567191  0.214170
			 0.450965  0.891669 -0.039462
			 0.800867  0.518762  0.299162
			 0.815910  0.526486  0.238962
			 0.534152  0.823105 -0.192818
			 0.413268  0.910352 -0.021643
			 0.613140  0.787876 -0.057533
			 0.122160  0.992001  0.031778
			-0.035563  0.995825  0.084074
			-0.406047  0.898740  0.165509
			-0.822499  0.564641  0.068383
			-0.982549  0.176652 -0.058242
			-0.837510 -0.445453 -0.316464
			-0.898451 -0.383013 -0.214679
			-0.908125 -0.186350 -0.374943
			 0.852277  0.449446  0.267625
			 0.967312  0.227220  0.112599
			 0.983301  0.138910  0.117568
			 0.850365  0.367933  0.376172
			 0.853212  0.352774  0.384162
			 0.914984  0.330358  0.231661
			-0.235791  0.819387 -0.522502
			-0.366927  0.803100 -0.469463
			-0.686306  0.639942 -0.345629
			-0.937346  0.317213 -0.144080
			-0.995318  0.086657 -0.042808
			-0.935675 -0.341318  0.089529
			-0.683054 -0.708959  0.175541
			-0.603372 -0.783515  0.148480
			-0.659687 -0.707998  0.252095
			-0.435563 -0.883411  0.172831
			-0.465777 -0.858714  0.213684
			-0.726743 -0.623187 -0.288933
			-0.609611 -0.744620 -0.271874
			-0.531211 -0.781322 -0.327645
			-0.469337 -0.847743  0.247091
			-0.665557 -0.742282  0.077789
			-0.611202 -0.783406 -0.112722
			-0.507295 -0.851887 -0.130153
			-0.533734 -0.786758 -0.310063
			 0.799392  0.545559 -0.251669
			 0.840614  0.465535 -0.276847
			 0.808414  0.495860 -0.317159
			 0.840539  0.485212 -0.240963
			 0.817294  0.550915 -0.168887
			 0.661270  0.746048 -0.078326
			 0.338313  0.896028 -0.287539
			 0.783104  0.495197 -0.376201
			 0.818941  0.448907 -0.357516
			 0.829949  0.464593 -0.308769
			 0.106897  0.912230 -0.395487
			-0.107935  0.913353 -0.392603
			 0.825718  0.391286 -0.406307
			 0.960774  0.179961 -0.211015
			 0.998550  0.004202 -0.053667
			 0.998645 -0.051038 -0.010148
			 0.998478 -0.054550 -0.008118
			 0.997889 -0.064385 -0.008521
			 0.997712 -0.067541 -0.002992
			 0.997744 -0.067132  0.000363
			 0.998327 -0.056672  0.011470
			 0.999371 -0.020082  0.029227
			 0.999873 -0.001645  0.015824
			 0.994799  0.056132  0.084990
			 0.922052  0.262887  0.284097
			 0.760772  0.600177  0.247009
			 0.726735  0.646300  0.232707
			 0.669085  0.738418  0.084052
			 0.795706  0.582774  0.165003
			 0.873969  0.475313  0.101274
			 0.375717  0.919609  0.114699
			 0.647829  0.761556  0.018722
			 0.066137  0.993237  0.095421
			-0.220029  0.938126  0.267408
			-0.480875  0.818757  0.313681
			-0.712737  0.674334  0.193079
			-0.883900  0.454178 -0.111551
			-0.701202 -0.675007 -0.229523
			-0.827293  0.415800 -0.377752
			-0.828638 -0.108858 -0.549099
			-0.717603 -0.570961 -0.398811
			-0.652657 -0.500592 -0.568724
			-0.680267 -0.498568 -0.537276
			 0.971392  0.211342  0.108318
			 0.988149  0.061043  0.140837
			 0.933147  0.252530  0.255861
			 0.876580  0.384538  0.289374
			 0.902168  0.392050  0.179970
			-0.533638  0.752904 -0.385184
			-0.831170  0.546063 -0.104745
			-0.981532  0.175061  0.077124
			-0.970243 -0.168208  0.174169
			-0.689193 -0.642513  0.334946
			-0.481098 -0.835177  0.266503
			-0.379289 -0.914167  0.142961
			-0.452795 -0.867218  0.207146
			-0.511333 -0.831805  0.215960
			-0.338837 -0.926704  0.162508
			-0.614104 -0.723788 -0.314654
			-0.604340 -0.697513 -0.385032
			-0.643477 -0.670709 -0.368900
			-0.554050 -0.699379 -0.451551
			-0.561905 -0.742410 -0.364816
			-0.611087 -0.785147  0.100587
			-0.531294 -0.820577  0.210666
			-0.715363 -0.694178  0.079829
			-0.698492 -0.715593  0.005980
			-0.682344 -0.727734 -0.069356
			-0.667914 -0.687707 -0.284516
			-0.647903 -0.653942 -0.390618
			 0.811329  0.506615 -0.291696
			 0.837271  0.496362 -0.229350
			 0.856337  0.390811 -0.337570
			 0.829360  0.501773 -0.245734
			 0.835000  0.448855 -0.318284
			 0.871431  0.475330 -0.121115
			 0.877827  0.438561 -0.192571
			 0.533902  0.794354 -0.289742
			 0.145528  0.906293 -0.396806
			 0.837380  0.413636 -0.357352
			 0.840706  0.472259 -0.264924
			 0.854105  0.390770 -0.343225
			 0.046830  0.906206 -0.420236
			-0.158787  0.876985 -0.453524
			-0.423765  0.848625 -0.316637
			 0.883178  0.406967 -0.233182
			 0.985528  0.115706 -0.123879
			 0.998567 -0.011283 -0.052313
			 0.998791 -0.034175 -0.035328
			 0.997763 -0.066336 -0.008266
			 0.997614 -0.068964 -0.003106
			 0.997431 -0.071569 -0.003076
			 0.997257 -0.073983 -0.002281
			 0.997245 -0.074182 -0.000482
			 0.997352 -0.072705  0.001644
			 0.997825 -0.065607  0.006360
			 0.998360 -0.056835  0.006919
			 0.998820 -0.046450  0.014161
			 0.997053  0.024210  0.072799
			 0.964357  0.195797  0.177988
			 0.756304  0.619844  0.209279
			 0.797253  0.563461  0.216564
			 0.757912  0.645683  0.093074
			 0.737430  0.595535  0.318645
			 0.845788  0.513866  0.143473
			 0.273942  0.846600  0.456316
			 0.625747  0.753984  0.199872
			-0.150496  0.914605  0.375297
			-0.299561  0.873490  0.383769
			-0.362507  0.859822  0.359575
			-0.497985  0.826494  0.262523
			-0.649250  0.758711  0.053218
			-0.806601  0.577440 -0.126326
			-0.946141  0.147998 -0.287948
			-0.820465 -0.321609 -0.472657
			-0.635614 -0.566443 -0.524536
			-0.760835 -0.514358 -0.395684
			-0.644468 -0.515451 -0.564775
			-0.710292 -0.599895 -0.368255
			-0.713085 -0.527781 -0.461474
			-0.622244 -0.528731 -0.577283
			 0.892014  0.224645  0.392231
			 0.912292  0.021644  0.408967
			 0.909807  0.030836  0.413885
			 0.844674  0.312127  0.434859
			 0.810509  0.130349  0.571039
			 0.933328  0.181902  0.309534
			-0.607546  0.778950 -0.155325
			-0.898104  0.334337  0.285706
			-0.936016 -0.105035  0.335919
			-0.717216 -0.349604  0.602809
			-0.587880 -0.497226  0.638093
			-0.595786 -0.647776  0.474790
			-0.571081 -0.692793  0.440345
			-0.612514 -0.679385  0.404059
			-0.728180 -0.588136  0.351923
			-0.615843 -0.683438  0.391982
			-0.797522 -0.475337  0.371501
			-0.496682 -0.829715 -0.254715
			-0.647377 -0.597973 -0.472580
			-0.348594 -0.837668 -0.420471
			-0.610182 -0.622616 -0.489925
			-0.495353 -0.609317 -0.619159
			-0.582641 -0.760318 -0.287136
			-0.787371 -0.579293  0.210873
			-0.781848 -0.543758  0.305026
			-0.838762 -0.510883  0.188355
			-0.842014 -0.538724  0.028077
			-0.835616 -0.549295 -0.004616
			-0.814783 -0.573706 -0.083612
			-0.767199 -0.563102 -0.307120
			-0.690446 -0.658483 -0.299473
			-0.771359 -0.531322 -0.350289
			 0.843175  0.430670 -0.321838
			 0.856793  0.191290 -0.478868
			 0.765962  0.270453 -0.583231
			 0.791494  0.096525 -0.603507
			 0.852413  0.200797 -0.482775
			 0.817214  0.467581 -0.336941
			 0.855200  0.322702 -0.405582
			 0.329226  0.765502 -0.552826
			 0.108965  0.829602 -0.547619
			 0.874413  0.388337 -0.290856
			 0.793384  0.233832 -0.562018
			 0.798398  0.091233 -0.595178
			-0.000589  0.852385 -0.522914
			-0.186138  0.860684 -0.473894
			-0.335293  0.839172 -0.428217
			 0.936189  0.101141 -0.336631
			 0.996999 -0.034923 -0.069088
			 0.998177 -0.046005 -0.039058
			 0.997987 -0.061689 -0.014707
			 0.997293 -0.073355 -0.005160
			 0.997263 -0.073905 -0.002259
			 0.997209 -0.074656 -0.000894
			 0.997104 -0.076042 -0.001000
			 0.997057 -0.076657 -0.000921
			 0.997100 -0.076108  0.000064
			 0.997190 -0.074897  0.001380
			 0.997364 -0.072538  0.002007
			 0.997566 -0.069644  0.003325
			 0.995995 -0.083049  0.033129
			 0.988480 -0.083194  0.126438
			 0.946441 -0.046812  0.319465
			 0.750057  0.520870  0.407565
			 0.909981  0.374450  0.178109
			 0.883301  0.276943  0.378261
			 0.635670  0.725187  0.264628
			 0.700100  0.343714  0.625876
			 0.728641  0.459466  0.507910
			 0.394246  0.754717  0.524377
			-0.002964  0.833267  0.552863
			-0.202685  0.889836  0.408793
			-0.224280  0.950889  0.213327
			-0.457308  0.884680  0.090617
			-0.506961  0.861722  0.020651
			-0.662177  0.730463 -0.167170
			-0.941430  0.267912 -0.204773
			-0.938753 -0.232405 -0.254424
			-0.628855 -0.557033 -0.542454
			-0.578195 -0.605845 -0.546482
			-0.819912 -0.513586 -0.252931
			-0.687030 -0.585522 -0.430294
			-0.795696 -0.544145 -0.266035
			-0.828671 -0.403456 -0.387978
			-0.426061 -0.655999 -0.623006
			-0.548153 -0.336983 -0.765487
			 0.676502  0.168286  0.716955
			 0.765570  0.082305  0.638066
			 0.798277  0.005294  0.602267
			 0.831366  0.063456  0.552091
			 0.806435  0.086754  0.584924
			 0.803488  0.047707  0.593406
			-0.234258  0.933654 -0.270950
			-0.566143  0.813071  0.135637
			-0.805448  0.429539  0.408351
			-0.874799  0.050712  0.481824
			-0.915479 -0.091738  0.391768
			-0.877693 -0.301157  0.372772
			-0.733274 -0.303397  0.608490
			-0.561228 -0.302031  0.770584
			-0.638807 -0.398309  0.658236
			-0.708977 -0.482501  0.514339
			-0.722323 -0.506421  0.470943
			-0.716280 -0.544815  0.436027
			-0.781989 -0.421725  0.458957
			-0.809706 -0.296764  0.506268
			-0.549734 -0.810067 -0.203922
			-0.467871 -0.673658 -0.572086
			-0.584092 -0.657253 -0.476292
			-0.621485 -0.336066 -0.707684
			-0.709246 -0.505643 -0.491218
			-0.714928 -0.405649 -0.569497
			-0.741180 -0.609799 -0.280707
			-0.822750 -0.482652  0.300216
			-0.843368 -0.475830  0.249633
			-0.788890 -0.486270  0.375759
			-0.914133 -0.351341  0.202287
			-0.943116 -0.329801  0.041989
			-0.945871 -0.324543 -0.000632
			-0.954281 -0.294614 -0.050504
			-0.927915 -0.324259 -0.183931
			-0.820691 -0.528144 -0.218016
			-0.955994 -0.236249 -0.173958
			 0.773782  0.247009 -0.583308
			 0.755572  0.037498 -0.653991
			 0.755182  0.045628 -0.653925
			 0.710908 -0.015904 -0.703105
			 0.735111 -0.037440 -0.676912
			 0.525838  0.566015 -0.634918
			 0.742655  0.229416 -0.629152
			 0.689062  0.108212 -0.716578
			 0.272824  0.692807 -0.667522
			 0.096210  0.889728 -0.446237
			 0.794105 -0.040710 -0.606415
			 0.727570 -0.150709 -0.669275
			 0.733811 -0.070335 -0.675702
			 0.025095  0.961516 -0.273600
			 0.911842 -0.120934 -0.392325
			 0.980601 -0.150050 -0.126119
			 0.996537 -0.076939 -0.031530
			 0.997399 -0.071174 -0.011374
			 0.984526 -0.175177 -0.004650
			 0.984617 -0.174712 -0.002298
			 0.984718 -0.174155 -0.000226
			 0.984683 -0.174356 -0.000013
			 0.984585 -0.174904 -0.000425
			 0.984495 -0.175414 -0.000379
			 0.984584 -0.174914  0.000554
			 0.984681 -0.174365  0.000508
			 0.982609 -0.183969  0.025210
			 0.982158 -0.180229  0.053697
			 0.933226 -0.316381  0.170270
			 0.905301 -0.287743  0.312465
			 0.853613 -0.144735  0.500397
			 0.837360  0.392545  0.380442
			 0.904342  0.200509  0.376779
			 0.848882  0.198993  0.489695
			 0.949686  0.093273  0.298994
			 0.509502  0.624828  0.591606
			 0.295099  0.807534  0.510691
			 0.706638  0.241438  0.665110
			 0.039976  0.950522  0.308075
			-0.095052  0.978974  0.180486
			-0.383637  0.919881  0.081501
			-0.389119  0.915510  0.102120
			-0.353249  0.933326 -0.064168
			-0.827987  0.365103 -0.425603
			-0.668643  0.673302 -0.315565
			-0.888349 -0.160829 -0.430081
			-0.717756 -0.473032 -0.510947
			-0.539556 -0.529710 -0.654436
			-0.765912 -0.532070 -0.360943
			-0.603934 -0.543254 -0.583215
			-0.707551 -0.513568 -0.485407
			-0.875643 -0.391085 -0.283377
			-0.809328 -0.412265 -0.418361
			-0.839282 -0.504453 -0.202816
			-0.497563 -0.469195 -0.729580
			-0.540242  0.000044 -0.841510
			-0.661627 -0.377009 -0.648162
			 0.747472  0.149565  0.647237
			 0.734395  0.022731  0.678342
			 0.786615  0.123854  0.604895
			 0.841091  0.177340  0.510995
			 0.810348  0.163770  0.562597
			 0.857499 -0.283986  0.429009
			 0.882442 -0.137266  0.449950
			-0.087141  0.996002  0.019672
			-0.469232  0.874375  0.123653
			-0.831186  0.507373  0.227384
			-0.882634  0.345982  0.318204
			-0.909605  0.108005  0.401190
			-0.819333 -0.060005  0.570170
			-0.810931 -0.205124  0.548009
			-0.851458 -0.317307  0.417534
			-0.762805 -0.525779  0.376410
			-0.753775 -0.499918  0.426504
			-0.640887 -0.455888  0.617600
			-0.656599 -0.242364  0.714240
			-0.752687 -0.273565  0.598852
			-0.810086 -0.480107  0.336537
			-0.703962 -0.514954  0.489142
			-0.678044 -0.491743  0.546301
			-0.737905 -0.412648  0.534057
			-0.719997 -0.333422  0.608632
			-0.790214 -0.450798 -0.415141
			-0.689683 -0.225791 -0.688008
			-0.791706 -0.307552 -0.527838
			-0.747796 -0.237046 -0.620170
			-0.788823 -0.242557 -0.564734
			-0.790535 -0.418776 -0.446857
			-0.858299 -0.443569  0.258009
			-0.920442 -0.323212  0.219819
			-0.894747 -0.366640  0.254956
			-0.902833 -0.419769  0.093201
			-0.907914 -0.419136 -0.004085
			-0.927137 -0.347222 -0.140902
			-0.980547 -0.153535 -0.122291
			-0.916874 -0.244768 -0.315327
			-0.977051 -0.122434 -0.174301
			-0.944117 -0.131750 -0.302135
			 0.615237  0.004517 -0.788329
			 0.660622 -0.184711 -0.727640
			 0.618715 -0.202207 -0.759147
			 0.574775 -0.125358 -0.808653
			 0.423635  0.306979 -0.852231
			 0.431996  0.047485 -0.900625
			 0.377868  0.015197 -0.925735
			 0.387165  0.134430 -0.912158
			 0.534947  0.724847 -0.434084
			 0.715465 -0.321718 -0.620167
			 0.636800 -0.390720 -0.664698
			 0.664200 -0.332885 -0.669347
			 0.162900  0.959661  0.229160
			 0.812779 -0.357734 -0.459802
			 0.842514 -0.423463 -0.332940
			 0.969640 -0.227467 -0.089763
			 0.983189 -0.181768 -0.017289
			 0.815373 -0.578764  0.014122
			 0.789396 -0.613870 -0.004162
			 0.795463 -0.606002 -0.000186
			 0.794994 -0.606616  0.001003
			 0.786090 -0.618074  0.006878
			 0.784823 -0.619573 -0.013508
			 0.807932 -0.589274 -0.001684
			 0.811255 -0.584693  0.000024
			 0.822586 -0.564490  0.068581
			 0.843810 -0.522235  0.123516
			 0.759903 -0.602315  0.244468
			 0.799993 -0.530981  0.279411
			 0.834711 -0.403176  0.375108
			 0.668635  0.319780  0.671318
			 0.721264  0.400424  0.565189
			 0.886545  0.169479  0.430483
			 0.796434  0.203243  0.569549
			 0.913675  0.051980  0.403107
			 0.897761  0.019594  0.440047
			 0.483645  0.525583  0.699893
			 0.441000  0.615683  0.653034
			 0.235492  0.778751  0.581455
			 0.019584  0.875858  0.482171
			-0.307728  0.898901  0.311900
			-0.209318  0.947736  0.240796
			-0.140618  0.986159 -0.087842
			-0.474274  0.845504 -0.245331
			-0.847042  0.202479 -0.491449
			-0.851809  0.389994 -0.349751
			-0.716509 -0.231913 -0.657899
			-0.573929 -0.535149 -0.619855
			-0.552822 -0.658883 -0.510158
			-0.642397 -0.550220 -0.533464
			-0.675496 -0.455587 -0.579781
			-0.734312 -0.444702 -0.512861
			-0.587154 -0.473563 -0.656497
			-0.770995 -0.519985 -0.367672
			-0.658186 -0.711670 -0.245596
			-0.611831 -0.776666 -0.149846
			-0.552259  0.044188 -0.832501
			-0.598919 -0.194464 -0.776840
			-0.631024 -0.643105 -0.433848
			 0.816787  0.023203  0.576473
			 0.818352  0.056509  0.571933
			 0.808249  0.243924  0.535942
			 0.810716  0.109039  0.575195
			 0.790186  0.132182  0.598442
			 0.625526 -0.262250  0.734807
			 0.705936 -0.655579  0.268089
			 0.762243 -0.540201  0.356606
			 0.721018 -0.284780  0.631691
			 0.653305 -0.499951  0.568544
			-0.185019  0.945165  0.269129
			-0.518705  0.838245  0.168196
			-0.691296  0.675427  0.256724
			-0.792421  0.350897  0.498938
			-0.668064 -0.201681  0.716251
			-0.733095 -0.091692  0.673918
			-0.717704 -0.339792  0.607818
			-0.801219 -0.270412  0.533784
			-0.670615 -0.416812  0.613631
			-0.665602 -0.576079  0.474455
			-0.680480 -0.632298  0.370332
			-0.673916 -0.430941  0.600106
			-0.633560 -0.658507  0.406164
			-0.756365 -0.483800  0.440284
			-0.914641 -0.279542  0.292042
			-0.686588 -0.507693  0.520427
			-0.764510 -0.392442  0.511385
			-0.708534 -0.386807  0.590220
			-0.711236 -0.480828  0.512784
			-0.640495 -0.243840 -0.728223
			-0.840443 -0.191641 -0.506882
			-0.819257 -0.255832 -0.513195
			-0.714078 -0.196021 -0.672063
			-0.804723 -0.218133 -0.552123
			-0.907015 -0.289712  0.305598
			-0.841575 -0.417175  0.343099
			-0.881055 -0.429328  0.198541
			-0.899563 -0.435521  0.033294
			-0.891318 -0.443361 -0.094779
			-0.848652 -0.432838 -0.304041
			-0.897986 -0.316301 -0.305899
			-0.906183 -0.271216 -0.324459
			-0.962595 -0.110072 -0.247579
			-0.861308 -0.249614 -0.442539
			-0.907162 -0.136556 -0.398007
			 0.374976 -0.018351 -0.926853
			 0.588143 -0.386708 -0.710313
			 0.500272 -0.302307 -0.811381
			 0.542883 -0.286613 -0.789387
			 0.576203 -0.314249 -0.754478
			 0.463076 -0.102467 -0.880375
			 0.264555 -0.004821 -0.964359
			 0.289918  0.037100 -0.956332
			 0.622998 -0.039699 -0.781215
			 0.456151 -0.075587 -0.886687
			 0.794641  0.000234 -0.607079
			 0.632418  0.643376  0.431410
			 0.933211  0.122536 -0.337790
			 0.667288 -0.454436 -0.590097
			 0.680101 -0.377743 -0.628309
			 0.722538 -0.451384 -0.523632
			 0.635630 -0.398218 -0.661360
			 0.503721 -0.470012 -0.724813
			 0.645610 -0.332706 -0.687382
			-0.090517  0.688252  0.719803
			 0.711018 -0.508791 -0.485370
			 0.706272 -0.537585 -0.460633
			 0.645119 -0.667873 -0.371169
			 0.733171 -0.657512 -0.173607
			 0.807531 -0.588744 -0.035697
			 0.310141 -0.950278  0.028019
			 0.094307 -0.993371  0.065722
			 0.104741 -0.994222  0.023484
			 0.100032 -0.994966  0.005952
			 0.083348 -0.996274 -0.022158
			 0.039388 -0.996002 -0.080174
			 0.158947 -0.986484 -0.039808
			 0.214385 -0.976534 -0.020490
			 0.295540 -0.955199  0.015833
			 0.439027 -0.891106  0.114830
			 0.547826 -0.822099  0.155050
			 0.559075 -0.803835  0.203187
			 0.563716  0.461967  0.684698
			 0.724127  0.329104  0.606078
			 0.736931  0.146235  0.659961
			 0.906398 -0.009624  0.422316
			 0.868830 -0.057088  0.491808
			 0.765550 -0.058940  0.640671
			 0.474665  0.528848  0.703571
			 0.330424  0.542451  0.772377
			 0.256382  0.666763  0.699782
			-0.000286  0.878253  0.478196
			 0.234784  0.960642 -0.148468
			-0.016408  0.644838 -0.764143
			-0.311018  0.917954 -0.246229
			-0.712781  0.487940 -0.503842
			-0.517974  0.778895 -0.353591
			-0.907926  0.020246 -0.418641
			-0.808321  0.123289 -0.575688
			-0.834670 -0.288764 -0.468979
			-0.690584 -0.621398 -0.370079
			-0.635284 -0.570474 -0.520551
			-0.676274 -0.588297 -0.443350
			-0.679581 -0.498798 -0.537931
			-0.716056 -0.538855 -0.443732
			-0.731700 -0.495175 -0.468419
			-0.743951 -0.620774 -0.247337
			-0.490280 -0.774827 -0.399086
			-0.294871 -0.755958 -0.584448
			-0.435474 -0.683801 -0.585473
			-0.651135 -0.747342 -0.132297
			-0.633093 -0.762150 -0.135351
			-0.712190 -0.560029 -0.423265
			-0.754227 -0.605213 -0.254674
			 0.856223  0.116594  0.503277
			 0.783837  0.149563  0.602686
			 0.545387 -0.280150  0.789980
			 0.268992 -0.557708  0.785242
			 0.293190 -0.610100  0.736083
			 0.425077 -0.646664  0.633353
			 0.288538 -0.950898  0.111981
			 0.395564 -0.891692  0.220032
			 0.494812 -0.750989  0.437238
			-0.425043  0.650777  0.629149
			-0.531903  0.750706  0.391816
			-0.655338  0.737292  0.164112
			-0.595778  0.729687  0.335568
			-0.674938  0.585968  0.448442
			-0.783275  0.270605  0.559691
			-0.846744 -0.175562  0.502197
			-0.777394 -0.377052  0.503477
			-0.793546 -0.431752  0.428805
			-0.775675 -0.367008  0.513453
			-0.835542 -0.379005  0.397775
			-0.740368 -0.410620  0.532209
			-0.611054 -0.387011  0.690533
			-0.525639 -0.526562  0.668159
			-0.608436 -0.659486  0.441456
			-0.728355 -0.589280  0.349641
			-0.898811 -0.184302  0.397709
			-0.959472 -0.137920  0.245745
			-0.775911 -0.228934  0.587836
			-0.754057 -0.268033  0.599630
			-0.742834 -0.204633  0.637435
			-0.845219 -0.366989  0.388489
			-0.761371 -0.418104 -0.495482
			-0.824456 -0.224206 -0.519619
			-0.849978 -0.048382 -0.524591
			-0.935020 -0.101088 -0.339880
			-0.915261 -0.310857 -0.256250
			-0.851271 -0.342084  0.397889
			-0.859649 -0.347211  0.374764
			-0.892223 -0.276696  0.356899
			-0.958251 -0.220447  0.182095
			-0.983241 -0.178889  0.035158
			-0.979555 -0.199269 -0.027640
			-0.935743 -0.285490 -0.207076
			-0.851725 -0.370020 -0.371012
			-0.842071 -0.361973 -0.399866
			-0.851141 -0.342960 -0.397414
			-0.847644 -0.343936 -0.403989
			-0.887156 -0.261644 -0.380128
			-0.897232 -0.074308 -0.435261
			 0.527312  0.158001 -0.834852
			 0.500933 -0.449143 -0.739822
			 0.513648 -0.457955 -0.725564
			 0.652878 -0.186899 -0.734043
			 0.717905 -0.286087 -0.634639