<?xml version="1.0"?>
<VTKFile type="PolyData" version="0.1" byte_order="LittleEndian" compressor="vtkZLibDataCompressor">
	<PolyData>
		<Piece NumberOfPoints="30498" NumberOfVerts="0" NumberOfLines="0" NumberOfStrips="0" NumberOfPolys="61004">
		<PointData Normals="Normals">
		<DataArray type="Float32" Name="Normals" NumberOfComponents="3" format="ascii">
			-0.190466  0.979567  0.064583
			-0.173793  0.970532  0.166922
			-0.138816  0.988211  0.064572
			-0.195149  0.980255 -0.031883
			-0.301934  0.952630  0.036497
			-0.270775  0.953050  0.135560
			-0.240049  0.966051  0.095511
			-0.218582  0.942671  0.252176
			-0.211257  0.951317  0.224426
			-0.201793  0.978978  0.029688
			-0.184161  0.971283 -0.150644
			-0.241490  0.963159 -0.118356
			-0.325007  0.945320 -0.027221
			-0.229315  0.971760 -0.055646
			-0.407589  0.912659  0.030407
			-0.352207  0.931733  0.088456
			-0.301159  0.931592  0.203568
			-0.378629  0.924557  0.042828
			-0.299426  0.954073 -0.009412
			-0.315065  0.939334  0.135594
			-0.257914  0.921982  0.288841
			-0.283587  0.933768  0.218303
			-0.213644  0.967448 -0.135646
			-0.251192  0.960738 -0.117831
			-0.265784  0.959742 -0.090857
			-0.210393  0.961946 -0.174342
			-0.134081  0.965212 -0.224473
			-0.289803  0.948558 -0.127481
			-0.331947  0.940730 -0.069555
			-0.419820  0.907522 -0.012414
			-0.200157  0.972134 -0.122039
			-0.384918  0.912859  0.136114
			-0.367790  0.915431  0.163451
			-0.471481  0.881759 -0.014384
			-0.359779  0.920460  0.152685
			-0.407315  0.909004  0.088356
			-0.299519  0.954080 -0.004500
			-0.323672  0.944966 -0.047703
			-0.497917  0.854281  0.149276
			-0.439969  0.894795  0.075958
			-0.422384  0.904953  0.051486
			-0.369257  0.921275  0.122072
			-0.306405  0.948832 -0.076379
			-0.287306  0.917587  0.274754
			-0.285309  0.917248  0.277947
			-0.344825  0.921069  0.180908
			-0.149540  0.973289 -0.174201
			-0.141479  0.976926 -0.159999
			-0.210515  0.966106 -0.149407
			-0.268623  0.950137 -0.158374
			-0.243970  0.958456 -0.147789
			-0.272361  0.957099 -0.098903
			-0.244372  0.942216 -0.229152
			-0.256176  0.945627 -0.200409
			-0.354021  0.932705 -0.068783
			-0.369236  0.926735 -0.069480
			-0.381075  0.923481 -0.044321
			-0.450794  0.892447  0.018002
			-0.505784  0.861813  0.038210
			-0.528293  0.848956 -0.013433
			-0.222231  0.969885 -0.099677
			-0.120998  0.976853 -0.176401
			-0.082932  0.976379 -0.199516
			-0.078115  0.983573 -0.162730
			-0.578635  0.809424 -0.100073
			-0.458080  0.888805 -0.013713
			-0.552727  0.822427 -0.134557
			-0.335494  0.914742  0.225144
			-0.384264  0.911966  0.143734
			-0.169913  0.984630 -0.040409
			-0.226110  0.967240 -0.115413
			-0.182485  0.982513  0.036967
			-0.228371  0.972835  0.037939
			-0.910222 -0.019137  0.413678
			-0.403519  0.912912  0.061360
			-0.378300  0.925671 -0.004650
			-0.493792  0.825888  0.272174
			-0.490977  0.764101  0.418440
			-0.458643  0.845424  0.273688
			-0.478252  0.840414  0.254909
			-0.458695  0.882412  0.104630
			-0.481484  0.864955  0.141511
			-0.427494  0.893257  0.139074
			-0.442454  0.869408  0.219917
			-0.371717  0.907730  0.194559
			-0.314297  0.903969  0.289928
			-0.285820  0.903249  0.320075
			-0.196876  0.954246 -0.225065
			-0.063911  0.982508 -0.174912
			-0.078648  0.958334 -0.274611
			-0.123539  0.979951 -0.156316
			-0.150755  0.967719 -0.201972
			-0.193649  0.959856 -0.202921
			-0.293821  0.936360 -0.192090
			-0.343879  0.935371 -0.082630
			-0.219595  0.940369 -0.259775
			-0.194090  0.925736 -0.324563
			-0.276323  0.930605 -0.240041
			-0.209444  0.929276 -0.304269
			-0.295829  0.928645 -0.223837
			-0.452189  0.891616  0.023354
			-0.454595  0.890246  0.028381
			-0.523400  0.848338  0.079846
			-0.622377  0.779750  0.068099
			-0.644900  0.761687 -0.062741
			-0.141841  0.978078 -0.152464
			-0.072256  0.986686 -0.145705
			-0.102080  0.976580 -0.189397
			-0.125204  0.988747 -0.081870
			-0.110944  0.972557 -0.204508
			-0.064972  0.970051 -0.234052
			-0.013877  0.985581 -0.168633
			-0.662138  0.726860 -0.182340
			-0.631719  0.743623 -0.218990
			-0.415007  0.905859  0.084781
			-0.495317  0.848515 -0.186234
			-0.423203  0.904345 -0.055308
			-0.440909  0.897475  0.011742
			-0.595086  0.765686 -0.244126
			-0.305327  0.910841  0.277747
			-0.343478  0.911192  0.227489
			-0.141396  0.989913  0.008901
			-0.233794  0.971850 -0.029121
			-0.181423  0.983405  0.000087
			-0.331141  0.940735  0.073231
			-0.266394  0.962060 -0.058941
			-0.440111  0.842818  0.309773
			-0.461356  0.650558  0.603262
			-0.472034  0.580677  0.663323
			-0.427619  0.603509  0.672992
			-0.456339  0.753568  0.473169
			-0.453302  0.740094  0.496768
			-0.483084  0.817079  0.314662
			-0.471757  0.811140  0.345685
			-0.400568  0.876793  0.266045
			-0.436208  0.839502  0.323973
			-0.347382  0.856170  0.382490
			-0.268453  0.894296  0.358004
			 0.075379  0.980789 -0.179921
			-0.022295  0.967896 -0.250361
			-0.096093  0.919471 -0.381233
			-0.177405  0.941062 -0.287976
			 0.006606  0.949198 -0.314609
			-0.041197  0.937498 -0.345544
			-0.078035  0.923252 -0.376186
			-0.390827  0.917223 -0.077181
			-0.339605  0.923431 -0.178728
			-0.206929  0.908098 -0.364060
			-0.180698  0.896862 -0.403716
			-0.165586  0.900302 -0.402538
			-0.153377  0.900965 -0.405879
			-0.299076  0.931220 -0.208286
			-0.263051  0.936196 -0.233110
			-0.526987  0.842791  0.109485
			-0.466570  0.883862  0.033178
			-0.550327  0.827886  0.108372
			-0.567766  0.812772  0.130554
			-0.604755  0.781121  0.155309
			-0.659227  0.751881 -0.009702
			-0.617824  0.773657  0.140529
			-0.613849  0.787117  0.060300
			-0.575358  0.815423 -0.063629
			-0.599906  0.798923 -0.042835
			-0.080079  0.994805 -0.062854
			 0.036670  0.995221 -0.090505
			 0.003637  0.988961 -0.148131
			-0.069025  0.980651 -0.183194
			-0.033463  0.957404 -0.286808
			 0.019426  0.963678 -0.266359
			 0.068320  0.978098 -0.196613
			-0.575981  0.804140 -0.146985
			-0.396751  0.904459  0.156658
			-0.443914  0.890878  0.096313
			-0.505975  0.851218 -0.139347
			-0.394156  0.905378 -0.157894
			-0.435056  0.874416 -0.214762
			-0.454738  0.874340 -0.169537
			-0.394992  0.916983 -0.055896
			-0.419774  0.907523 -0.013828
			-0.457414  0.888506 -0.036456
			-0.433132  0.895493  0.102412
			-0.440769  0.896174  0.050933
			-0.458761  0.888559 -0.001424
			-0.259346  0.889899  0.375259
			-0.330562  0.894459  0.301116
			-0.107895  0.994103 -0.010899
			-0.139219  0.988380 -0.061012
			-0.070846  0.997485  0.002289
			-0.174093  0.984352  0.027254
			-0.330699  0.895472  0.297939
			-0.396374  0.646769  0.651597
			-0.315988  0.404837  0.858055
			-0.362845  0.418125  0.832776
			-0.405651  0.458287  0.790835
			-0.389671  0.606520  0.693029
			-0.324470  0.474454  0.818298
			-0.457431  0.728985  0.509252
			-0.399184  0.642694  0.653909
			-0.423600  0.783762  0.454181
			-0.264205  0.862234  0.432144
			-0.298409  0.820073  0.488294
			 0.044275  0.963154 -0.265280
			 0.116022  0.962264 -0.246145
			 0.166163  0.942941 -0.288535
			 0.115379  0.965805 -0.232183
			-0.144208  0.883034 -0.446604
			-0.082475  0.887013 -0.454318
			 0.021482  0.907054 -0.420466
			 0.058892  0.947896 -0.313088
			 0.028008  0.926394 -0.375512
			 0.006219  0.916837 -0.399213
			-0.071862  0.898888 -0.432245
			-0.452609  0.891702  0.003645
			-0.407629  0.899745 -0.155876
			-0.349863  0.927151 -0.134117
			-0.179017  0.864535 -0.469608
			-0.192326  0.927159 -0.321538
			-0.138603  0.824286 -0.548947
			-0.171091  0.792105 -0.585916
			-0.194539  0.869175 -0.454632
			-0.166258  0.798655 -0.578368
			-0.135341  0.878185 -0.458774
			-0.102902  0.880753 -0.462262
			-0.083521  0.835685 -0.542821
			-0.364536  0.919800 -0.145193
			-0.411509  0.897218 -0.160188
			-0.332806  0.917572 -0.217491
			-0.302643  0.913605 -0.271539
			-0.600667  0.778724  0.181077
			-0.508956  0.856348  0.087361
			-0.547478  0.825054  0.139835
			-0.594094  0.784316  0.178607
			-0.564727  0.816262  0.121656
			-0.528778  0.847541  0.045478
			-0.540602  0.833577 -0.113574
			-0.508195  0.860964 -0.021889
			 0.069641  0.997465 -0.014602
			 0.061472  0.995079 -0.077707
			 0.054505  0.976257 -0.209644
			 0.048761  0.948395 -0.313321
			 0.085815  0.943918 -0.318832
			 0.078944  0.968297 -0.236999
			-0.377101  0.892469  0.247575
			-0.430462  0.881341  0.194781
			-0.405114  0.872575  0.272940
			-0.320494  0.931298 -0.173111
			-0.333823  0.936299 -0.109112
			-0.441569  0.893763 -0.078769
			-0.363632  0.923294 -0.123689
			-0.377936  0.921241 -0.092088
			-0.424376  0.903589 -0.058580
			-0.443962  0.890603 -0.098614
			-0.492640  0.857192 -0.150093
			-0.534658  0.834769 -0.131536
			-0.497698  0.866246 -0.043762
			-0.425989  0.889200  0.166905
			-0.425435  0.888982  0.169459
			-0.461462  0.884630  0.066952
			-0.263159  0.867271  0.422597
			-0.219788  0.830253  0.512224
			-0.335277  0.875424  0.348171
			-0.065632  0.997770 -0.012131
			-0.057261  0.996827  0.055293
			 0.117708  0.992324  0.037932
			 0.009279  0.998073  0.061355
			-0.147950  0.941686  0.302223
			-0.016321  0.992239  0.123273
			-0.252771  0.715579  0.651194
			-0.219440  0.383676  0.897017
			-0.180325  0.180446  0.966914
			-0.260843  0.307370  0.915142
			-0.325187  0.505719  0.799063
			-0.345544  0.546219  0.763049
			-0.226298  0.358752  0.905586
			-0.431491  0.668373  0.605882
			-0.425193  0.692801  0.582441
			-0.432963  0.727183  0.532681
			-0.362346  0.654065  0.664006
			-0.335680  0.752707  0.566348
			-0.229795  0.782147  0.579172
			 0.167758  0.938561 -0.301596
			 0.216107  0.912990 -0.346046
			 0.192878  0.903925 -0.381731
			 0.142090  0.879372 -0.454439
			-0.056828  0.839620 -0.540194
			-0.086350  0.845340 -0.527204
			-0.029759  0.835099 -0.549294
			-0.000130  0.854457 -0.519521
			 0.025598  0.852508 -0.522087
			 0.017349  0.881628 -0.471625
			-0.497515  0.862474  0.092833
			-0.435703  0.876820 -0.203347
			-0.458303  0.888749 -0.009098
			-0.496708  0.863159 -0.090766
			-0.439681  0.895588 -0.067836
			-0.068067  0.736544 -0.672956
			-0.115103  0.726963 -0.676961
			-0.207199  0.788738 -0.578759
			-0.324602  0.868309 -0.375064
			-0.018279  0.808028 -0.588861
			-0.042378  0.753788 -0.655749
			-0.537859  0.840274 -0.068176
			-0.512408  0.856891 -0.056353
			-0.488321  0.843459 -0.223873
			-0.591668  0.800952 -0.091678
			-0.629901  0.775233 -0.047309
			-0.474869  0.853392 -0.214989
			-0.392256  0.890447 -0.230737
			-0.581135  0.790639  0.192797
			-0.568221  0.803143  0.179127
			-0.541341  0.829976  0.134500
			-0.514027  0.853878  0.081662
			-0.458074  0.888767  0.016189
			-0.459453  0.888198  0.002558
			 0.073569  0.997289 -0.001369
			 0.160329  0.985358  0.058000
			 0.050801  0.993637 -0.100521
			 0.080519  0.964859 -0.250127
			 0.052577  0.944786 -0.323441
			 0.167388  0.889920 -0.424292
			 0.198648  0.894448 -0.400627
			-0.413561  0.852179  0.320559
			-0.428611  0.836650  0.341041
			-0.372867  0.878221  0.299497
			-0.366366  0.853722  0.370046
			-0.330659  0.835634  0.438613
			-0.278341  0.947673 -0.156340
			-0.306682  0.929684 -0.204043
			-0.336041  0.930356 -0.146679
			-0.396253  0.916160 -0.060281
			-0.399317  0.894430 -0.201349
			-0.440840  0.878998 -0.181722
			-0.448213  0.864343 -0.228072
			-0.519055  0.815097 -0.257290
			-0.568490  0.792910 -0.219349
			-0.586093  0.774222 -0.238904
			-0.612296  0.761591 -0.212302
			-0.575136  0.810519 -0.110804
			-0.541720  0.840492  0.010586
			-0.438228  0.860733  0.259027
			-0.450774  0.857108  0.249334
			-0.394179  0.872678  0.288194
			-0.407595  0.891480  0.197811
			-0.449409  0.870532  0.200514
			-0.519645  0.838496  0.163992
			-0.287857  0.855046  0.431317
			-0.223416  0.820767  0.525763
			-0.155837  0.736838  0.657864
			-0.176450  0.749456  0.638108
			-0.356466  0.838203  0.412733
			 0.027956  0.986051  0.164076
			 0.003602  0.960302  0.278940
			 0.143251  0.980815  0.132215
			 0.224859  0.970877  0.082683
			 0.038923  0.912392  0.407464
			-0.040456  0.779173  0.625502
			-0.054772  0.521219  0.851664
			-0.084704  0.293464  0.952210
			-0.082138  0.335548  0.938435
			-0.161734  0.156443  0.974355
			-0.130618  0.247209  0.960118
			-0.196969  0.112883  0.973890
			-0.153294  0.128118  0.979840
			-0.193981  0.069950  0.978508
			-0.143782  0.161355  0.976366
			-0.248880  0.492448  0.833999
			-0.097679  0.162623  0.981842
			-0.125732  0.251418  0.959677
			-0.216626  0.664954  0.714779
			 0.281137  0.888510 -0.362645
			 0.257036  0.814627 -0.519919
			 0.381257  0.830129 -0.406852
			 0.367976  0.759479 -0.536455
			 0.384504  0.855179 -0.347600
			 0.098490  0.826740 -0.553897
			 0.192191  0.793320 -0.577673
			-0.047664  0.813144 -0.580107
			 0.023027  0.749370 -0.661751
			 0.002322  0.739772 -0.672853
			 0.051083  0.815304 -0.576776
			-0.527544  0.838427  0.136885
			-0.597198  0.802019  0.010907
			-0.573289  0.813077  0.101223
			-0.051281  0.711430 -0.700883
			-0.089349  0.716742 -0.691591
			-0.169280  0.731221 -0.660803
			-0.360347  0.830553 -0.424654
			-0.320779  0.784118 -0.531281
			-0.250509  0.751656 -0.610130
			-0.436463  0.867406 -0.238971
			-0.034028  0.773852 -0.632451
			 0.031565  0.761224 -0.647720
			-0.047771  0.741238 -0.669540
			 0.014197  0.757203 -0.653025
			-0.568396  0.771939 -0.284668
			-0.604066  0.783340 -0.146569
			-0.653087  0.756703  0.029649
			-0.613281  0.787072 -0.066357
			-0.615986  0.787745 -0.004504
			-0.487023  0.830664 -0.269827
			-0.496720  0.864320 -0.078863
			-0.515063  0.844040 -0.149354
			-0.543619  0.827299  0.141619
			-0.595827  0.789372  0.147924
			-0.500261  0.861892  0.082959
			-0.492292  0.866754  0.079910
			-0.427058  0.902000 -0.063390
			-0.465770  0.884584  0.023880
			-0.440214  0.893995 -0.083570
			-0.456387  0.889216 -0.031726
			-0.011081  0.999912 -0.007307
			-0.005653  0.997252  0.073866
			 0.240197  0.967731  0.076179
			 0.060377  0.992664  0.104755
			 0.112634  0.988696  0.098965
			 0.010178  0.981699 -0.190166
			-0.042260  0.993764 -0.103190
			 0.065800  0.951557 -0.300349
			 0.155896  0.903164 -0.399989
			 0.235393  0.822979 -0.517006
			 0.306544  0.822270 -0.479482
			-0.419327  0.822422  0.384431
			-0.373467  0.786874  0.491276
			-0.412904  0.850841  0.324929
			-0.322852  0.845012  0.426288
			-0.225140  0.731164  0.643981
			-0.210916  0.798888  0.563287
			-0.361631  0.904096 -0.227669
			-0.392192  0.906584 -0.155854
			-0.423927  0.864087 -0.271366
			-0.445871  0.857714 -0.255980
			-0.425831  0.872102 -0.241051
			-0.455406  0.850108 -0.264426
			-0.557941  0.794149 -0.240893
			-0.493871  0.852451 -0.171516
			-0.567764  0.796946 -0.206207
			-0.611352  0.755915 -0.234181
			-0.632360  0.749078 -0.197491
			-0.653021  0.737332 -0.172930
			-0.656145  0.736296 -0.165356
			-0.644040  0.764839 -0.015296
			-0.591768  0.797198  0.119524
			-0.396465  0.866541  0.303187
			-0.372670  0.857317  0.355140
			-0.602783  0.739349  0.300026
			-0.545637  0.809559  0.216552
			-0.290489  0.811102  0.507671
			-0.220909  0.666333  0.712179
			-0.116194  0.587316  0.800973
			-0.142243  0.596158  0.790166
			-0.355912  0.774733  0.522605
			 0.028913  0.931612  0.362302
			 0.200187  0.925568  0.321325
			 0.004993  0.751212  0.660042
			 0.254756  0.948393  0.188813
			 0.303714  0.939096  0.160801
			-0.034359  0.450643  0.892043
			-0.007509  0.410643  0.911765
			-0.057776  0.406235  0.911940
			-0.028838  0.382018  0.923705
			-0.041126  0.176618  0.983420
			-0.129574  0.103072  0.986198
			-0.199879  0.112959  0.973288
			-0.151116  0.126684  0.980365
			-0.143207  0.059197  0.987921
			-0.159033  0.126463  0.979140
			-0.157857  0.156816  0.974931
			-0.118083  0.105796  0.987352
			-0.147676  0.294542  0.944159
			-0.207465  0.439656  0.873877
			-0.053082  0.137878  0.989026
			-0.098860  0.107104  0.989321
			-0.101075  0.221693  0.969864
			-0.185294  0.449441  0.873881
			-0.119166  0.494811  0.860791
			 0.446540  0.791373 -0.417530
			 0.362952  0.694290 -0.621472
			 0.308764  0.755687 -0.577583
			 0.505436  0.736526 -0.449515
			 0.535719  0.635307 -0.556229
			 0.419868  0.665345 -0.617274
			 0.158874  0.766459 -0.622334
			 0.213071  0.785664 -0.580804
			 0.039122  0.667824 -0.743290
			 0.000550  0.660547 -0.750784
			 0.158619  0.654410 -0.739316
			 0.028768  0.713917 -0.699639
			-0.645857  0.758768  0.084500
			-0.091004  0.720153 -0.687822
			-0.121065  0.660977 -0.740575
			-0.325107  0.778168 -0.537364
			-0.235821  0.796211 -0.557168
			-0.113526  0.686525 -0.718188
			-0.148158  0.745002 -0.650401
			-0.428826  0.804496 -0.410968
			 0.069676  0.718727 -0.691792
			-0.059233  0.742841 -0.666842
			 0.033296  0.705433 -0.707994
			 0.090353  0.672052 -0.734971
			-0.531093  0.847213 -0.013044
			-0.617441  0.781211  0.092066
			-0.587817  0.807996  0.040156
			-0.453347  0.810325 -0.371280
			-0.486290  0.813877 -0.318005
			-0.543681  0.787713 -0.289686
			-0.510806  0.859393 -0.022829
			-0.517965  0.852556 -0.069721
			-0.577204  0.787791 -0.214990
			-0.591263  0.801039 -0.093513
			-0.511262  0.857847  0.052059
			-0.548680  0.831128  0.090421
			-0.431109  0.883933 -0.181128
			-0.496511  0.868029  0.001717
			-0.497788  0.867020 -0.021975
			-0.450208  0.873702 -0.184278
			-0.520785  0.848947 -0.089843
			-0.088770  0.996041 -0.004648
			-0.120178  0.990941  0.059952
			-0.071401  0.987745  0.138785
			 0.033515  0.989873  0.137942
			 0.256210  0.952061  0.167141
			 0.138465  0.968847  0.205337
			-0.007053  0.978787 -0.204757
			 0.039831  0.979272 -0.198592
			 0.038166  0.986792 -0.157433
			-0.056859  0.998106 -0.023484
			 0.062469  0.949555 -0.307315
			 0.157933  0.920993 -0.356130
			 0.206204  0.854083 -0.477517
			 0.239049  0.756880 -0.608267
			 0.340225  0.736229 -0.584990
			 0.411312  0.761827 -0.500441
			-0.298854  0.632583  0.714510
			-0.250061  0.659199  0.709173
			-0.370154  0.845161  0.385603
			-0.202629  0.815205  0.542570
			-0.300748  0.811640  0.500791
			-0.083567  0.586795  0.805412
			-0.018154  0.697291  0.716558
			-0.546840  0.821062 -0.163775
			-0.594132  0.782125 -0.187847
			-0.624658  0.757929 -0.188005
			-0.610686  0.790159 -0.052071
			-0.567912  0.815670  0.110261
			-0.633280  0.772047  0.053861
			-0.529627  0.790793  0.306826
			-0.350237  0.863145  0.363751
			-0.324649  0.839450  0.435805
			-0.711371  0.624210  0.322975
			-0.505998  0.828444  0.240099
			-0.510496  0.844915  0.159725
			-0.165774  0.390714  0.905462
			-0.098008  0.426680  0.899076
			-0.068265  0.334358  0.939971
			 0.202360  0.833931  0.513429
			 0.026443  0.752924  0.657576
			 0.283957  0.892259  0.351057
			 0.281540  0.742801  0.607439
			 0.310658  0.790648  0.527605
			 0.008052  0.518202  0.855221
			 0.350919  0.842568  0.408578
			 0.347913  0.905991  0.241114
			 0.384881  0.871075  0.305114
			 0.169431  0.533697  0.828529
			 0.088718  0.517252  0.851223
			 0.125652  0.487907  0.863804
			 0.111631  0.277578  0.954196
			 0.124624  0.114284  0.985600
			-0.024232  0.059956  0.997907
			-0.168171  0.072351  0.983099
			-0.156318  0.095688  0.983061
			-0.182569  0.113803  0.976585
			 0.039520  0.008766  0.999180
			-0.016533 -0.001144  0.999863
			-0.079772  0.049550  0.995581
			-0.119715  0.074811  0.989986
			-0.090523  0.287762  0.953414
			-0.038822  0.088596  0.995311
			-0.060493  0.077060  0.995190
			-0.199144 -0.022665  0.979708
			 0.011888 -0.057242  0.998290
			 0.425154  0.749141 -0.507969
			 0.521498  0.731798 -0.438763
			 0.467549  0.735357 -0.490559
			 0.399918  0.682504 -0.611762
			 0.425896  0.617126 -0.661640
			 0.454922  0.580297 -0.675501
			 0.318469  0.717270 -0.619759
			 0.559736  0.677146 -0.477671
			 0.502335  0.572559 -0.647948
			 0.634514  0.578857 -0.512168
			 0.614971  0.497117 -0.612116
			 0.568576  0.493225 -0.658370
			 0.336906  0.596433 -0.728534
			 0.031112  0.662324 -0.748571
			 0.121497  0.586197 -0.801007
			 0.277095  0.517036 -0.809872
			 0.101116  0.640828 -0.760996
			-0.072465  0.685052 -0.724881
			-0.056951  0.610926 -0.789636
			-0.089920  0.617294 -0.781577
			-0.128928  0.571467 -0.810434
			-0.104358  0.626742 -0.772207
			-0.345330  0.834217 -0.429917
			-0.411450  0.795447 -0.444941
			-0.245435  0.804611 -0.540705
			-0.085207  0.679303 -0.728894
			-0.162793  0.657234 -0.735895
			-0.268333  0.756040 -0.596994
			 0.142572  0.644939 -0.750817
			 0.123311  0.681279 -0.721563
			 0.168154  0.643856 -0.746440
			 0.200313  0.619566 -0.758955
			 0.111254  0.630488 -0.768184
			-0.028244  0.629821 -0.776227
			 0.123813  0.534137 -0.836282
			 0.152487  0.520926 -0.839871
			-0.375916  0.838412 -0.394655
			-0.416138  0.823917 -0.384694
			-0.538105  0.795591 -0.278348
			-0.609618  0.749253 -0.258817
			-0.590332  0.806383 -0.035423
			-0.563787  0.825598 -0.023059
			-0.657841  0.738506 -0.147831
			-0.664172  0.745598 -0.054400
			-0.569547  0.820989 -0.039914
			-0.588852  0.798438 -0.125495
			-0.035970  0.997772  0.056189
			-0.042981  0.985021  0.166993
			-0.022533  0.967680  0.251174
			 0.013315  0.975104  0.221349
			 0.292717  0.901833  0.317827
			 0.177766  0.913923  0.364889
			 0.082686  0.959344 -0.269856
			 0.218240  0.952107 -0.214159
			 0.151075  0.985623 -0.075653
			 0.099343  0.995035  0.005982
			 0.301134  0.894906 -0.329334
			 0.262991  0.856368 -0.444375
			 0.270501  0.805386 -0.527431
			 0.313685  0.712565 -0.627577
			 0.204649  0.721621 -0.661349
			 0.290361  0.736433 -0.611029
			-0.135374  0.444314  0.885584
			-0.090367  0.724076  0.683775
			-0.221401  0.730122  0.646455
			-0.267093  0.778519  0.567951
			 0.054365  0.418843  0.906430
			 0.061930  0.543701  0.836991
			 0.183484  0.501324  0.845582
			 0.154743  0.590107  0.792356
			 0.063754  0.589659  0.805132
			-0.648594  0.723689 -0.235798
			-0.652948  0.711820 -0.258786
			-0.675238  0.698379 -0.237318
			-0.595638  0.791811 -0.135098
			-0.553403  0.832061  0.037671
			-0.509239  0.860374  0.020802
			-0.547536  0.836132 -0.032977
			-0.494864  0.854491  0.157973
			-0.590500  0.790266  0.163675
			-0.338186  0.877034  0.341234
			-0.459070  0.864188  0.205996
			-0.392076  0.876502  0.279321
			-0.274974  0.866425  0.416770
			-0.281222  0.829546  0.482460
			-0.164994  0.821317  0.546091
			-0.060461  0.231955  0.970846
			-0.069238  0.202777  0.976774
			-0.050724  0.165337  0.984932
			-0.030012  0.134968  0.990395
			 0.181048  0.641792  0.745201
			 0.308067  0.656330  0.688713
			 0.407375  0.807441  0.426714
			 0.381172  0.711114  0.590784
			 0.441735  0.789360  0.426358
			 0.449258  0.750671  0.484418
			 0.450765  0.697010  0.557663
			 0.256348  0.571846  0.779281
			 0.334062  0.424297  0.841650
			 0.306185  0.216255  0.927084
			 0.295363  0.111966  0.948801
			 0.129396  0.036920  0.990905
			-0.122789 -0.002805  0.992429
			-0.112580  0.077789  0.990593
			-0.148494  0.128458  0.980534
			-0.208463  0.074228  0.975209
			 0.199240 -0.020491  0.979736
			 0.124071 -0.070013  0.989800
			 0.058765 -0.054118  0.996804
			 0.035616 -0.002431  0.999363
			-0.041257  0.034893  0.998539
			-0.071974 -0.000483  0.997406
			 0.012010 -0.002995  0.999923
			-0.056108 -0.111315  0.992200
			-0.107443 -0.006184  0.994192
			-0.196393 -0.066797  0.978247
			-0.081820 -0.155874  0.984382
			-0.258110 -0.211135  0.942762
			-0.135863 -0.497968  0.856487
			 0.043437  0.012328  0.998980
			 0.076912 -0.104272  0.991570
			 0.064650 -0.077416  0.994901
			-0.008277 -0.219777  0.975515
			 0.005103 -0.174602  0.984626
			 0.025570 -0.237081  0.971153
			 0.039909 -0.293116  0.955243
			 0.085477 -0.278808  0.956535
			 0.330462  0.769426 -0.546606
			 0.379008  0.689519 -0.617185
			 0.508871  0.659274 -0.553541
			 0.415318  0.567372 -0.711056
			 0.560325  0.470803 -0.681455
			 0.525640  0.493954 -0.692613
			 0.662729  0.521925 -0.537015
			 0.746366  0.402743 -0.529845
			 0.677282  0.402073 -0.616138
			 0.641176  0.404588 -0.652076
			 0.367142  0.532569 -0.762612
			 0.214642  0.569790 -0.793265
			 0.313999  0.445149 -0.838598
			 0.379893  0.365724 -0.849663
			-0.041737  0.542264 -0.839171
			 0.014986  0.539622 -0.841774
			-0.079626  0.507948 -0.857699
			-0.083137  0.566495 -0.819860
			-0.120819  0.425351 -0.896928
			-0.087994  0.557300 -0.825635
			-0.163613  0.471939 -0.866317
			-0.256585  0.567020 -0.782721
			-0.347851  0.696579 -0.627517
			 0.203628  0.571289 -0.795088
			 0.194416  0.618069 -0.761704
			 0.203186  0.612320 -0.764055
			 0.203889  0.514468 -0.832918
			 0.319609  0.532138 -0.784015
			 0.311629  0.379696 -0.871044
			 0.269518  0.492527 -0.827513
			 0.052666  0.465034 -0.883725
			 0.194057  0.351248 -0.915951
			 0.187032  0.369615 -0.910167
			-0.512866  0.746121 -0.424585
			-0.582382  0.742352 -0.331278
			-0.685902  0.682089 -0.253559
			-0.668633  0.720671 -0.183203
			-0.668373  0.742303 -0.047591
			-0.636324  0.769942 -0.047765
			-0.682406  0.729392 -0.048051
			-0.662285  0.745555 -0.074340
			-0.662230  0.747104 -0.057336
			-0.660814  0.741695 -0.114951
			-0.674454  0.707979 -0.209469
			 0.118505  0.987378  0.105077
			 0.117161  0.963723  0.239816
			 0.040626  0.955217  0.293105
			 0.085361  0.932350  0.351336
			 0.099921  0.930897  0.351349
			 0.341928  0.825631  0.448798
			 0.195341  0.834462  0.515282
			 0.266185  0.838971  0.474629
			 0.255161  0.966263 -0.035051
			 0.357614  0.899996 -0.249237
			 0.388385  0.896461 -0.213339
			 0.373576  0.923569 -0.086377
			 0.213557  0.976055  0.041364
			 0.374555  0.867005 -0.328651
			 0.331175  0.831361 -0.446277
			 0.375732  0.751244 -0.542640
			 0.409678  0.772362 -0.485409
			 0.268845  0.622105 -0.735328
			 0.488508  0.673182 -0.555145
			 0.473461  0.595956 -0.648592
			 0.410003  0.526976 -0.744442
			 0.230376  0.717969 -0.656847
			-0.010674  0.263203  0.964682
			-0.048790  0.566502  0.822615
			-0.094225  0.633025  0.768375
			-0.098983  0.750437  0.653489
			 0.163037  0.389239  0.906594
			 0.138325  0.173566  0.975060
			 0.231379  0.391745  0.890505
			 0.285360  0.205797  0.936065
			 0.126446  0.375921  0.917984
			-0.630403  0.753027 -0.188528
			-0.637680  0.736426 -0.225920
			-0.654451  0.714851 -0.246338
			-0.633355  0.766516 -0.106371
			-0.731526  0.625521 -0.271281
			-0.715494  0.678897 -0.164828
			-0.694986  0.655900 -0.294602
			-0.739860  0.607890 -0.288229
			-0.537467  0.840343  0.070376
			-0.526698  0.850007  0.008815
			-0.617144  0.786668 -0.016950
			-0.424205  0.867957  0.258266
			-0.462140  0.865898  0.191435
			-0.506729  0.858344  0.080442
			-0.377070  0.870161  0.317234
			-0.298162  0.888620  0.348502
			-0.153286  0.862704  0.481919
			-0.038209  0.770708  0.636042
			 0.067788  0.659621  0.748535
			 0.105197  0.710896  0.695385
			 0.006124  0.129220  0.991597
			 0.365298  0.583892  0.725002
			 0.447501  0.649634  0.614588
			 0.449715  0.703534  0.550269
			 0.543139  0.641795  0.541387
			 0.469982  0.625843  0.622444
			 0.476207  0.544158  0.690738
			 0.497690  0.564054  0.658899
			 0.434194  0.423112  0.795268
			 0.418715  0.296778  0.858255
			 0.333329  0.135834  0.932974
			 0.302452  0.040775  0.952292
			-0.030162 -0.125682  0.991612
			-0.038924 -0.108115  0.993376
			-0.074533  0.011916  0.997147
			-0.116611 -0.073529  0.990452
			 0.258787 -0.007201  0.965908
			 0.160543 -0.046697  0.985924
			 0.186790  0.141903  0.972097
			 0.162038  0.187224  0.968861
			 0.010706 -0.047745  0.998802
			 0.088855 -0.045330  0.995013
			-0.020814 -0.223660  0.974445
			-0.044816 -0.320260  0.946269
			-0.096031 -0.328243  0.939699
			-0.132166 -0.502175  0.854606
			 0.022325 -0.608688  0.793095
			-0.054496 -0.651083  0.757048
			 0.003087 -0.788209  0.615400
			 0.034381 -0.784955  0.618598
			 0.127319 -0.006247  0.991842
			 0.055863 -0.087441  0.994602
			 0.093301 -0.117268  0.988708
			 0.157649 -0.284558  0.945608
			 0.132059 -0.193563  0.972159
			 0.007863 -0.307580  0.951490
			 0.040540 -0.436730  0.898679
			 0.074399 -0.499316  0.863220
			 0.123268 -0.504526  0.854552
			 0.198673 -0.519702  0.830926
			 0.310778  0.666517 -0.677623
			 0.376551  0.586274 -0.717281
			 0.517607  0.496264 -0.696997
			 0.489181  0.507769 -0.709135
			 0.342317  0.593693 -0.728249
			 0.649122  0.321848 -0.689242
			 0.590662  0.304652 -0.747198
			 0.767365  0.375844 -0.519512
			 0.659037  0.341546 -0.670087
			 0.759932  0.272004 -0.590353
			 0.748748  0.257316 -0.610873
			 0.727934  0.281199 -0.625331
			 0.243519  0.517897 -0.820050
			 0.340464  0.464294 -0.817628
			 0.398429  0.440893 -0.804280
			 0.340514  0.161406 -0.926282
			 0.392299  0.094851 -0.914934
			 0.463946  0.270426 -0.843578
			 0.521754  0.041289 -0.852096
			 0.021984  0.441312 -0.897085
			 0.040298  0.408830 -0.911720
			 0.144677  0.431444 -0.890463
			 0.073995  0.441985 -0.893965
			-0.011003  0.282537 -0.959193
			-0.061674  0.270923 -0.960623
			-0.101313  0.469813 -0.876933
			-0.164930  0.389861 -0.905984
			-0.055173  0.213874 -0.975302