<?xml version="1.0"?>
<VTKFile type="PolyData" version="0.1" byte_order="LittleEndian" compressor="vtkZLibDataCompressor">
	<PolyData>
		<Piece NumberOfPoints="6451" NumberOfVerts="0" NumberOfLines="0" NumberOfStrips="0" NumberOfPolys="12892">
		<PointData Normals="Normals">
		<DataArray type="Float32" Name="Normals" NumberOfComponents="3" format="ascii">
			-0.159570  0.987186 -0.000891
			-0.093287  0.992574 -0.078069
			-0.198643  0.972900 -0.118351
			-0.112272  0.993034  0.035748
			-0.285474  0.945356 -0.157499
			-0.299003  0.954229  0.006646
			-0.092622  0.979800  0.177240
			-0.220684  0.961764  0.162197
			-0.312763  0.930276 -0.191742
			-0.111663  0.992690 -0.045812
			-0.022659  0.964501 -0.263106
			-0.111345  0.948322 -0.297131
			-0.058272  0.991341  0.117674
			-0.081751  0.996363  0.024013
			-0.063528  0.975905  0.208745
			-0.391870  0.895668 -0.210277
			-0.400892  0.913838 -0.064689
			-0.356611  0.930555  0.083041
			-0.165282  0.948197  0.271300
			-0.088153  0.950309  0.298566
			-0.305228  0.929883  0.205314
			-0.383666  0.903776 -0.189711
			-0.421387  0.864681 -0.273422
			-0.013704  0.989670 -0.142708
			-0.006633  0.999499 -0.030935
			-0.181178  0.904188 -0.386805
			-0.083494  0.972462 -0.217594
			-0.191538  0.944622 -0.266464
			-0.000989  0.996477  0.083865
			-0.002462  0.985125  0.171824
			-0.058207  0.959810  0.274548
			-0.494303  0.834022 -0.245097
			-0.481363  0.867038 -0.128590
			-0.459502  0.887538 -0.033677
			-0.253348  0.931604  0.260630
			-0.157643  0.944528  0.288123
			-0.106527  0.953065  0.283406
			-0.395207  0.911410  0.114639
			-0.324832  0.908276  0.263664
			-0.296309  0.911982  0.283707
			-0.462363  0.828023 -0.317172
			-0.489128  0.828294 -0.273282
			-0.561023  0.768817 -0.306877
			 0.001995  0.988571 -0.150745
			 0.013462  0.998944  0.043923
			-0.023650  0.999661  0.010891
			 0.006864  0.990996 -0.133717
			-0.359701  0.850924 -0.382809
			-0.304326  0.888994 -0.342164
			-0.045951  0.974694 -0.218769
			-0.136613  0.952596 -0.271841
			-0.225178  0.903960 -0.363527
			-0.018835  0.996185  0.085210
			-0.072597  0.961171  0.266232
			 0.012496  0.989730  0.142402
			-0.572952  0.794766 -0.200184
			-0.561344  0.815166 -0.142823
			-0.502071  0.864604  0.019583
			-0.120238  0.949394  0.290163
			-0.216839  0.932633  0.288403
			-0.309744  0.922846  0.228941
			-0.071105  0.948197  0.309622
			-0.373567  0.886906  0.271746
			-0.365364  0.883165  0.294160
			-0.411977  0.833475 -0.368233
			-0.584467  0.745579 -0.320173
			-0.504114  0.750798 -0.426815
			-0.569167  0.747170 -0.343198
			-0.597711  0.728290 -0.335164
			-0.630287  0.707655 -0.319315
			-0.012210  0.975377 -0.220204
			 0.017262  0.998873  0.044221
			 0.026410  0.999284 -0.027079
			 0.178820  0.973741 -0.140894
			 0.155660  0.959855 -0.233341
			 0.002460  0.972717 -0.231981
			 0.071900  0.963080 -0.259435
			-0.344217  0.848395 -0.402170
			-0.052516  0.937957 -0.342753
			-0.124782  0.867016 -0.482404
			-0.243591  0.809836 -0.533694
			-0.120506  0.954217  0.273768
			-0.069294  0.977565  0.198911
			-0.130497  0.955507  0.264532
			 0.098168  0.990198  0.099355
			 0.153668  0.966113  0.207393
			 0.032688  0.980657  0.192986
			-0.618809  0.737338 -0.270937
			-0.661624  0.714283 -0.228151
			-0.608096  0.791315 -0.063563
			-0.561691  0.818397  0.121362
			-0.163814  0.932953  0.320569
			-0.091314  0.949305  0.300802
			-0.311384  0.906926  0.283769
			-0.268712  0.908272  0.320679
			-0.328334  0.855767  0.399825
			-0.454315  0.845079  0.281850
			-0.459447  0.857287  0.232310
			-0.363473  0.885384  0.289799
			-0.386319  0.864802  0.320742
			-0.411153  0.863293  0.292708
			-0.425988  0.797618 -0.427013
			-0.615481  0.718850 -0.323167
			-0.623639  0.711973 -0.322751
			-0.420067  0.732301 -0.535984
			-0.586702  0.734330 -0.341380
			-0.424823  0.690573 -0.585350
			-0.455872  0.680844 -0.573265
			-0.561051  0.654400 -0.506935
			-0.619472  0.735638 -0.274027
			-0.013957  0.950095 -0.311648
			 0.169383  0.985543 -0.003673
			 0.304395  0.934484 -0.184619
			 0.288381  0.954956 -0.069970
			 0.136269  0.962877 -0.233019
			 0.254450  0.947602 -0.193148
			 0.044174  0.923911 -0.380050
			 0.061889  0.947444 -0.313877
			-0.336203  0.769613 -0.542829
			-0.065353  0.895675 -0.439880
			-0.133905  0.781169 -0.609791
			-0.227988  0.739835 -0.632981
			-0.197599  0.946805  0.253999
			-0.197266  0.964124  0.177625
			-0.238288  0.949873  0.202387
			-0.098808  0.978201  0.182649
			 0.037697  0.969167  0.243503
			 0.230571  0.971816  0.049097
			 0.162441  0.973515  0.160877
			 0.312569  0.919333  0.239013
			 0.299127  0.907103  0.296121
			 0.393238  0.863226  0.316551
			 0.228902  0.936106  0.267037
			 0.190504  0.944737  0.266795
			-0.668182  0.687133 -0.285274
			-0.713161  0.676657 -0.183131
			-0.692033  0.710188 -0.129316
			-0.702673  0.667270 -0.246986
			-0.649515  0.760151  0.017312
			-0.593235  0.799646  0.092943
			-0.273599  0.911152  0.308131
			-0.516855  0.844240  0.141848
			-0.478649  0.855776  0.196322
			-0.384036  0.884809  0.263874
			-0.366509  0.891997  0.264600
			-0.528412  0.821888  0.212794
			-0.559650  0.802922  0.205202
			-0.443146  0.867559  0.225751
			-0.334159  0.707617 -0.622589
			-0.559081  0.775050 -0.294494
			-0.612471  0.628030 -0.480060
			-0.588278  0.705448 -0.395312
			-0.347102  0.631832 -0.693043
			-0.466085  0.556761 -0.687591
			-0.560379  0.520904 -0.643922
			-0.660926  0.717232 -0.220804
			-0.605929  0.723617 -0.330497
			-0.014155  0.909897 -0.414593
			 0.384518  0.920152 -0.073935
			 0.373138  0.907753 -0.191709
			 0.394472  0.915111 -0.083447
			 0.301860  0.953114 -0.021337
			 0.109319  0.955995 -0.272256
			 0.256270  0.919523 -0.298000
			 0.341853  0.848185 -0.404621
			 0.342493  0.908188 -0.240609
			-0.027492  0.850105 -0.525895
			 0.011447  0.902996 -0.429496
			 0.057903  0.906719 -0.417741
			 0.007461  0.687781 -0.725880
			-0.095628  0.714474 -0.693096
			-0.228245  0.654109 -0.721141
			-0.311819  0.918489  0.243202
			-0.181529  0.945063  0.271851
			-0.179894  0.952421  0.246032
			-0.321576  0.931055  0.172411
			-0.108883  0.963032  0.246404
			-0.240761  0.949395  0.201699
			 0.038948  0.931928  0.360545
			 0.169454  0.922226  0.347541
			 0.270241  0.952739  0.138776
			 0.304643  0.950674  0.058406
			 0.370784  0.915683  0.155060
			 0.364302  0.880004  0.304758
			 0.434567  0.821821  0.368459
			 0.411069  0.854461  0.317676
			 0.500781  0.778348  0.378673
			 0.506492  0.779499  0.368575
			 0.336850  0.862529  0.377591
			-0.681758  0.730957 -0.030126
			-0.766573  0.611460 -0.196171
			-0.708071  0.697237 -0.111790
			-0.748985  0.627942 -0.211448
			-0.603636  0.788745  0.116212
			-0.672311  0.739933  0.022294
			-0.314380  0.904961  0.286725
			-0.443263  0.860333  0.251684
			-0.379977  0.890731  0.249429
			-0.715314  0.678368  0.167758
			-0.546051  0.801381  0.244165
			-0.643112  0.725551  0.244914
			-0.616335  0.511391 -0.598841
			-0.630962  0.508256 -0.586143
			-0.631071  0.631801 -0.450086
			-0.209375  0.483677 -0.849835
			-0.303413  0.447210 -0.841394
			-0.412207  0.419774 -0.808626
			-0.562803  0.437098 -0.701568
			-0.660600  0.697726 -0.277104
			-0.752007  0.611341 -0.246471
			-0.714360  0.576981 -0.395958
			 0.402669  0.915238  0.014021
			 0.494482  0.868719 -0.028555
			 0.535450  0.844462 -0.013295
			 0.460559  0.886739 -0.039740
			 0.404470  0.871085 -0.278595
			 0.510432  0.851004 -0.123492
			 0.456954  0.844922 -0.278027
			 0.511000  0.858557  0.041935
			 0.248624  0.834577 -0.491597
			 0.375950  0.808770 -0.452275
			 0.412205  0.628550 -0.659554
			 0.400116  0.633177 -0.662566
			 0.452031  0.790571 -0.413116
			 0.032945  0.758996 -0.650261
			 0.044114  0.815876 -0.576542
			 0.240931  0.736390 -0.632203
			 0.131823  0.515718 -0.846557
			 0.167593  0.599970 -0.782271
			-0.053013  0.581363 -0.811915
			-0.398721  0.902058  0.165264
			-0.125786  0.934774  0.332228
			-0.077062  0.926391  0.368594
			-0.074337  0.940720  0.330937
			-0.272812  0.942975  0.190712
			-0.152592  0.939635  0.306271
			-0.338841  0.920463  0.194765
			 0.179411  0.901291  0.394318
			 0.047358  0.922156  0.383909
			-0.024025  0.915137  0.402426
			 0.370955  0.834810  0.406798
			 0.424286  0.820472  0.383153
			 0.551062  0.832712  0.054044
			 0.528150  0.830345  0.177721
			 0.550674  0.713298  0.433547
			 0.494232  0.768486  0.406404
			 0.596869  0.688849  0.411381
			 0.419537  0.795767  0.436742
			-0.743814  0.667282 -0.038409
			-0.794037  0.602791 -0.078411
			-0.804235  0.536316 -0.256067
			-0.847824  0.471189 -0.243261
			-0.857587  0.487899 -0.162785
			-0.826945  0.520482 -0.212743
			-0.836521  0.509651 -0.201217
			-0.739998  0.671585  0.037094
			-0.528744  0.808442  0.258558
			-0.496665  0.840300  0.217302
			-0.809668  0.585281  0.043402
			-0.806071  0.581273  0.111226
			-0.773185  0.570297  0.277391
			-0.864688  0.475987  0.160469
			-0.843399  0.489947  0.220524
			-0.638045  0.712456  0.292071
			-0.700715  0.518824 -0.489714
			-0.585791  0.380860 -0.715398
			-0.665367  0.352382 -0.658114
			-0.704368  0.568972 -0.424425
			 0.017099  0.250791 -0.967890
			-0.114636  0.283797 -0.952007
			-0.192851  0.321367 -0.927110
			-0.222980  0.405130 -0.886651
			-0.523988  0.401674 -0.751063
			-0.327134  0.396503 -0.857769
			-0.456810  0.329914 -0.826124
			-0.811746  0.474600 -0.340329
			-0.847053  0.441705 -0.295632
			-0.809736  0.437404 -0.391158
			 0.606325  0.793941  0.045025
			 0.686002  0.724743  0.064411
			 0.601919  0.796911  0.051248
			 0.500678  0.738734 -0.451213
			 0.478740  0.790086 -0.382847
			 0.690953  0.715758 -0.101362
			 0.549154  0.794723 -0.258544
			 0.593240  0.684390 -0.423883
			 0.607084  0.778315  0.160236
			 0.439721  0.419671 -0.794054
			 0.505967  0.592159 -0.627173
			 0.461960  0.377121 -0.802729
			 0.461744  0.316700 -0.828549
			 0.384016  0.461681 -0.799614
			 0.166632  0.533061 -0.829506
			 0.315241  0.176626 -0.932431
			 0.161573  0.378002 -0.911597
			 0.330632  0.290591 -0.897908
			-0.432122  0.888273  0.155695
			-0.110059  0.944115  0.310698
			-0.084376  0.951602  0.295524
			-0.260373  0.923492  0.281723
			-0.167380  0.945076  0.280740
			-0.301108  0.904081  0.303268
			-0.066693  0.958550  0.277010
			-0.395198  0.882079  0.256426
			 0.246165  0.882897  0.399869
			 0.061806  0.961213  0.268792
			 0.234159  0.918726  0.317981
			-0.023655  0.952712  0.302952
			 0.511261  0.743145  0.431679
			 0.412358  0.844632  0.341405
			 0.519044  0.772592  0.365643
			 0.538927  0.742835  0.397183
			 0.608711  0.636185  0.474066
			 0.702861  0.700790  0.121980
			 0.733754  0.617110  0.284218
			 0.649927  0.597072  0.470213
			 0.652764  0.604640  0.456409
			 0.577190  0.688902  0.438482
			 0.689616  0.612880  0.385756
			-0.834292  0.550064 -0.037220
			-0.871922  0.392567 -0.292650
			-0.900735  0.291526 -0.322008
			-0.919165  0.274567 -0.282397
			-0.913108  0.381314 -0.144334
			-0.887506  0.395823 -0.235918
			-0.586786  0.767834  0.257127
			-0.618967  0.737046  0.271372
			-0.433950  0.865248  0.251063
			-0.554747  0.793256  0.250999
			-0.891704  0.452570 -0.006701
			-0.876968  0.476195  0.064547
			-0.702445  0.647759  0.294923
			-0.765050  0.559866  0.318195
			-0.826423  0.508462  0.241850
			-0.806562  0.487337  0.334604
			-0.924201  0.373833  0.078114
			-0.903983  0.401978  0.145701
			-0.805781  0.404495 -0.432552
			-0.759580  0.506625 -0.407883
			-0.776101  0.298072 -0.555716
			-0.554389  0.286691 -0.781321
			-0.589762  0.176449 -0.788065
			-0.701657  0.161811 -0.693898
			 0.226481  0.048449 -0.972810
			 0.209279 -0.033315 -0.977288
			 0.087012  0.062292 -0.994258
			 0.003353  0.165880 -0.986140
			-0.040542  0.294123 -0.954907
			-0.103067  0.408465 -0.906936
			-0.300476  0.317825 -0.899278
			-0.343114  0.120304 -0.931558
			-0.483419  0.168020 -0.859113
			-0.875031  0.362012 -0.321354
			 0.723857  0.672235  0.155340
			 0.776738  0.606070  0.171337
			 0.660651  0.739578  0.128703
			 0.764054  0.641059  0.072566
			 0.575058  0.595850 -0.560599
			 0.533629  0.490551 -0.688912
			 0.674857  0.661586 -0.326913
			 0.805247  0.517454 -0.289514
			 0.821456  0.568089 -0.049845
			 0.713041  0.513806 -0.477049
			 0.685948  0.428446 -0.588140
			 0.650077  0.718933  0.246039
			 0.702347  0.646408  0.298104
			 0.422817  0.167326 -0.890633
			 0.515240  0.300131 -0.802776
			 0.404563  0.209635 -0.890159
			 0.430115  0.033843 -0.902140
			 0.261453  0.227071 -0.938126
			 0.396419 -0.096053 -0.913031
			 0.264176  0.005684 -0.964458
			 0.300023 -0.134245 -0.944439
			 0.415736 -0.174211 -0.892645
			-0.104041  0.952052  0.287701
			-0.150330  0.940725  0.304034
			-0.128368  0.967066  0.219783
			-0.102331  0.964329  0.244126
			-0.339915  0.903107  0.262403
			-0.255971  0.942192  0.216225
			-0.329865  0.923133  0.197520
			 0.224652  0.949162  0.220506
			 0.087151  0.951563  0.294843
			 0.224316  0.948768  0.222534
			 0.411027  0.886595  0.212149
			 0.575264  0.744434  0.338952
			 0.563695  0.688966  0.455602
			 0.638014  0.702849  0.314549
			 0.544229  0.801093  0.249129
			 0.772379  0.496418  0.396231
			 0.791347  0.549898  0.267174
			 0.733672  0.530645  0.424432
			 0.596772  0.661553  0.454104
			 0.744487  0.567786  0.351224
			 0.771131  0.569009  0.285632
			 0.687495  0.645830  0.332046
			 0.673670  0.641622  0.366729
			-0.914811  0.398202 -0.067493
			-0.926023  0.159402 -0.342158
			-0.923898  0.264045 -0.276936
			-0.929839  0.012577 -0.367752
			-0.940375  0.029713 -0.338840
			-0.954409  0.225496 -0.195591
			-0.956407  0.269113 -0.113418
			-0.656310  0.708095  0.260497
			-0.398098  0.897325  0.190594
			-0.523665  0.824170  0.215683
			-0.950933  0.302513 -0.064899
			-0.930289  0.366596  0.013007
			-0.745910  0.602069  0.284836
			-0.802993  0.507167  0.313025
			-0.842881  0.411559  0.346657
			-0.874898  0.426084  0.230231
			-0.859014  0.409309  0.307507
			-0.870076  0.310877  0.382522
			-0.962205  0.272307  0.003233
			-0.964638  0.248770  0.087100
			-0.921335  0.325623  0.212397
			-0.850463  0.309144 -0.425608
			-0.798549  0.284474 -0.530466
			-0.697997  0.099138 -0.709205
			-0.540313  0.115225 -0.833538
			-0.519301 -0.045386 -0.853385
			-0.630598 -0.005913 -0.776087
			-0.687742  0.026718 -0.725464
			 0.323899 -0.069972 -0.943500
			 0.215903 -0.070068 -0.973897
			 0.183785  0.035639 -0.982320
			 0.112162  0.166210 -0.979691
			 0.136591  0.253900 -0.957537
			-0.003481  0.297275 -0.954786
			-0.133387  0.116099 -0.984240
			-0.379950  0.003992 -0.924998
			-0.239151 -0.035015 -0.970351
			-0.466818  0.010645 -0.884289
			-0.928480  0.212294 -0.304724
			 0.758501  0.630879  0.163302
			 0.881337  0.464550  0.086245
			 0.847131  0.494169  0.195361
			 0.601247  0.405925 -0.688278
			 0.860416  0.366097 -0.354482
			 0.777175  0.363114 -0.513952
			 0.897349  0.431590 -0.092166
			 0.738921  0.275309 -0.614981
			 0.653671  0.278591 -0.703635
			 0.762824  0.574793  0.296163
			 0.815759  0.473300  0.332452
			 0.341764  0.067737 -0.937342
			 0.402384  0.021151 -0.915227
			 0.401436  0.136223 -0.905700
			 0.560153  0.180628 -0.808457
			 0.320734  0.041388 -0.946264
			 0.375185  0.052342 -0.925471
			 0.459854  0.265539 -0.847363
			 0.453148 -0.144430 -0.879657
			 0.406639 -0.159014 -0.899644
			 0.344624 -0.107520 -0.932563
			-0.072721  0.952198  0.296699
			-0.171965  0.955574  0.239387
			-0.143107  0.958017  0.248444
			-0.093722  0.968416  0.231054
			-0.197823  0.946268  0.255819
			-0.342046  0.919844  0.192074
			 0.336920  0.872686  0.353417
			 0.231923  0.928505  0.289982
			 0.397481  0.887220  0.234201
			 0.560861  0.802196  0.204736
			 0.578132  0.790032  0.203991
			 0.618349  0.660431  0.426000
			 0.602328  0.766161  0.224051
			 0.635175  0.742842  0.211514
			 0.798895  0.583536  0.145784
			 0.679883  0.696771  0.228622
			 0.800106  0.465120  0.378805
			 0.826521  0.416813  0.378325
			 0.850593  0.370841  0.372785
			 0.805283  0.498720  0.320622
			 0.691820  0.642863  0.328805
			 0.787597  0.529003  0.315986
			 0.891789  0.363457  0.269464
			 0.823452  0.505822  0.257042
			 0.760704  0.625100  0.174868
			-0.951572  0.110582 -0.286848
			-0.966764  0.015492 -0.255199
			-0.930216 -0.097809 -0.353739
			-0.962945 -0.017469 -0.269132
			-0.972252  0.125799 -0.197235
			-0.942412 -0.091207 -0.321777
			-0.547455  0.783599  0.293711
			-0.772107  0.584489  0.249446
			-0.731185  0.603638  0.317789
			-0.516968  0.817897  0.252566
			-0.970969  0.230068 -0.065485
			-0.846878  0.441196  0.296889
			-0.876184  0.356616  0.324232
			-0.911324  0.222835  0.346169
			-0.902816  0.261895  0.341078
			-0.902017  0.103404  0.419134
			-0.994225  0.068703 -0.082439
			-0.982945  0.172286 -0.064319
			-0.936933  0.195750  0.289550
			-0.999437  0.033403 -0.003082
			-0.990369  0.044535  0.131096
			-0.786983  0.090313 -0.610329
			-0.890720  0.204792 -0.405805
			-0.649652 -0.115486 -0.751408
			-0.649271  0.032226 -0.759874
			-0.590519  0.048803 -0.805547
			-0.863386  0.090372 -0.496384
			-0.796049  0.028338 -0.604569
			-0.674039  0.001521 -0.738694
			-0.563804 -0.166856 -0.808879
			-0.378840 -0.110980 -0.918784
			-0.467034 -0.160064 -0.869632
			-0.623439 -0.126346 -0.771596
			 0.400410 -0.030010 -0.915845
			 0.273205  0.119849 -0.954461
			 0.330837  0.082475 -0.940077
			 0.020068  0.139543 -0.990013
			 0.207324  0.267685 -0.940936
			-0.103775  0.027744 -0.994214
			-0.232989 -0.101483 -0.967170
			-0.225913 -0.171567 -0.958920
			-0.963536  0.055045 -0.261856
			-0.951822  0.022633 -0.305815
			-0.923711  0.059424 -0.378454
			 0.946033  0.307211  0.103167
			 0.896142  0.362035  0.256633
			 0.911982  0.224694 -0.343223
			 0.804694  0.180059 -0.565727
			 0.947825  0.305988 -0.089442
			 0.716862  0.160594 -0.678468
			 0.885818  0.310150  0.345156
			 0.198626 -0.065040 -0.977915
			 0.264773 -0.096290 -0.959491
			 0.457591  0.048893 -0.887818
			 0.326846 -0.017494 -0.944916
			 0.227650 -0.026104 -0.973393
			 0.619160  0.100796 -0.778769
			 0.506178 -0.056334 -0.860587
			 0.355772  0.017708 -0.934405
			 0.405516  0.105908 -0.907932
			 0.089423  0.957540  0.274082
			-0.063454  0.950975  0.302689
			-0.071565  0.961965  0.263633
			-0.130918  0.944612  0.300946
			-0.203823  0.927577  0.313140
			-0.170635  0.921296  0.349425
			-0.166706  0.959119  0.228691
			-0.097417  0.953625  0.284795
			-0.195880  0.940614  0.277265
			-0.246729  0.932610  0.263371
			-0.463124  0.841700  0.277592
			 0.520424  0.768374  0.372506
			 0.494228  0.830614  0.256555
			 0.556078  0.725151  0.406120
			 0.363859  0.911551  0.191524
			 0.604877  0.732276  0.312884
			 0.604505  0.730710  0.317232
			 0.624880  0.590475  0.510749
			 0.599069  0.731201  0.326283
			 0.506835  0.848305  0.153287
			 0.504298  0.850653  0.148569
			 0.651955  0.754163  0.078694
			 0.681734  0.726412  0.086972
			 0.781655  0.620841  0.059766
			 0.912279  0.178817  0.368471
			 0.924288  0.221613  0.310773
			 0.879436  0.390930  0.271600
			 0.951048  0.174280  0.255212
			 0.962984  0.186404  0.194719
			 0.943977  0.252405  0.212603
			 0.908410  0.336502  0.248107
			 0.914746  0.356788  0.189584
			 0.862655  0.493316  0.111652
			-0.973350  0.031455 -0.227156
			-0.947121  0.030266 -0.319447
			-0.983439 -0.031073 -0.178554
			-0.935886 -0.038658 -0.350175
			-0.964339 -0.046091 -0.260624
			-0.908563 -0.246828 -0.337029
			-0.992914  0.026808 -0.115774
			-0.978458 -0.022689 -0.205194
			-0.423385  0.849588  0.314555
			-0.530705  0.783855  0.322371
			-0.616440  0.709782  0.340899
			-0.462381  0.828570  0.315714
			-0.738641  0.551453  0.387697
			-0.813940  0.517925  0.263164
			-0.896872  0.362629  0.253222
			-0.852041  0.385313  0.354345
			-0.919316  0.252664  0.301693
			-0.941745  0.087165  0.324836
			-0.935292 -0.001575  0.353872
			-0.942942  0.046718  0.329664
			-0.894393 -0.082841  0.439545
			-0.893034 -0.024223  0.449337
			-0.901245 -0.374663 -0.217681
			-0.971340 -0.133419 -0.196716
			-0.971819  0.049462 -0.230479
			-0.992854  0.028415 -0.115904
			-0.952512 -0.010836  0.304308
			-0.968079 -0.242263 -0.064285
			-0.973477 -0.224517  0.043991
			-0.940181 -0.259713  0.220472
			-0.570606 -0.058872 -0.819111
			-0.527494 -0.008016 -0.849521
			-0.567375 -0.067059 -0.820725
			-0.822647 -0.085059 -0.562154
			-0.851705 -0.022683 -0.523530
			-0.644288 -0.176244 -0.744198
			-0.740556 -0.114097 -0.662238
			-0.562772 -0.150279 -0.812837
			-0.313589 -0.201937 -0.927838
			-0.351881 -0.264539 -0.897886
			-0.314222 -0.204891 -0.926976
			-0.450928 -0.048429 -0.891246
			 0.366250  0.117019 -0.923129
			 0.400390  0.199705 -0.894319
			 0.367768  0.189136 -0.910480
			 0.078437  0.065992 -0.994732
			 0.380627  0.155353 -0.911586
			 0.392011  0.190957 -0.899924
			 0.319673  0.221977 -0.921160
			 0.065711  0.174443 -0.982472
			 0.302888  0.203233 -0.931104
			 0.151977 -0.023111 -0.988114
			-0.062335 -0.166818 -0.984015
			-0.043996 -0.209348 -0.976851
			-0.135003 -0.220666 -0.965961
			-0.955208 -0.096514 -0.279756
			-0.926155 -0.026745 -0.376194
			-0.944765  0.055489 -0.323018
			-0.923185 -0.112045 -0.367661
			 0.980471  0.191195  0.046048
			 0.935375  0.266452  0.232544
			 0.970372  0.165240  0.176276
			 0.986889  0.115218  0.113024
			 0.940826  0.191398  0.279665
			 0.854267  0.079704 -0.513688
			 0.947668  0.030066 -0.317838
			 0.984194  0.122459 -0.127927
			 0.778418  0.063907 -0.624485
			 0.876747  0.023903 -0.480358
			 0.663110  0.040194 -0.747442
			 0.944752  0.093467  0.314179
			 0.206990 -0.039663 -0.977539
			 0.259297  0.050249 -0.964490
			 0.518614 -0.053222 -0.853350
			 0.337235 -0.037677 -0.940666
			 0.233647  0.029355 -0.971878
			 0.357068  0.175318 -0.917478
			 0.251309  0.934831  0.250870
			-0.007309  0.950705  0.310011
			 0.170477  0.940243  0.294755
			-0.067242  0.959062  0.275098
			-0.083760  0.958778  0.271532
			-0.101746  0.959627  0.262227
			-0.229970  0.922987  0.308560
			-0.278184  0.907732  0.314065
			-0.106107  0.958013  0.266370
			 0.511867  0.847122  0.142747
			 0.549303  0.823688  0.140729
			 0.484789  0.863195  0.140977
			 0.360843  0.906175  0.220545
			 0.499683  0.849056  0.171525
			 0.507931  0.852133  0.125997
			 0.649832  0.753018  0.103350
			 0.825894  0.562633  0.036651
			 0.783917  0.617005  0.069120
			 0.885963  0.459417  0.063291
			 0.936338  0.005811  0.351051
			 0.945854  0.087594  0.312551
			 0.971977  0.032326  0.232842
			 0.984758  0.041561  0.168890
			 0.975201  0.164682  0.147860
			 0.936585  0.330585  0.116287
			 0.912635  0.394732  0.106225
			 0.911992  0.397378  0.101791
			-0.965837 -0.039848 -0.256067
			-0.975328 -0.160770 -0.151287
			-0.929951 -0.049336 -0.364358
			-0.970192  0.086776 -0.226270
			-0.959632 -0.201080 -0.196657
			-0.941145 -0.174347 -0.289567
			-0.875094 -0.268102 -0.402904
			-0.902616 -0.350813 -0.249427
			-0.981368  0.074010 -0.177310
			-0.988860  0.057228 -0.137408
			-0.463458  0.836053  0.293634
			-0.629128  0.710637  0.314950
			-0.808645  0.439987  0.390519
			-0.768291  0.552146  0.323826
			-0.755354  0.565174  0.331690
			-0.952414  0.098601  0.288419
			-0.937905  0.152885  0.311386
			-0.824725  0.307948  0.474337
			-0.878226  0.157127  0.451697
			-0.947326  0.041309  0.317595
			-0.924273 -0.055770  0.377636
			-0.933372 -0.126968  0.335703
			-0.932310 -0.144431  0.331569
			-0.940103 -0.089894  0.328825
			-0.859025 -0.261976  0.439823
			-0.878514 -0.258871  0.401497
			-0.960480 -0.041289 -0.275270
			-0.975732  0.030643 -0.216816
			-0.979757 -0.097169 -0.175026
			-0.952562 -0.286895 -0.101571
			-0.886589 -0.458180 -0.063493
			-0.878761 -0.476412  0.028494
			-0.871180 -0.465124  0.157179
			-0.824597 -0.467422  0.318681
			-0.502857 -0.088360 -0.859841
			-0.519551 -0.300702 -0.799778
			-0.553261 -0.359041 -0.751659
			-0.833768 -0.140032 -0.534061
			-0.627907 -0.301932 -0.717336
			-0.772683 -0.247886 -0.584391
			-0.247204 -0.297052 -0.922307
			-0.235749 -0.405647 -0.883104
			-0.175365 -0.335408 -0.925607
			-0.341969 -0.175873 -0.923107
			 0.298273  0.074114 -0.951599
			 0.332013  0.255355 -0.908054
			 0.403247  0.078744 -0.911697
			 0.401144  0.121563 -0.907913
			 0.359749  0.136970 -0.922941
			 0.366950  0.211588 -0.905858
			 0.462404  0.176391 -0.868947
			 0.121590 -0.126179 -0.984528
			 0.057295 -0.159223 -0.985579
			-0.013533 -0.271063 -0.962466
			-0.072225 -0.332547 -0.940317
			-0.904310 -0.219793 -0.365943
			-0.840813 -0.205089 -0.500971
			-0.896508 -0.173289 -0.407731
			-0.904287 -0.212102 -0.370509
			 0.998504  0.052525 -0.015163
			 0.978887  0.034146  0.201531
			 0.998224 -0.019928  0.056136
			 0.988342 -0.006191 -0.152122
			 0.811879 -0.017713 -0.583556
			 0.727693 -0.105495 -0.677741
			 0.939639  0.034971 -0.340376
			 0.954263 -0.019136  0.298355
			 0.979686 -0.096567  0.175758
			 0.286052  0.116634 -0.951089
			 0.525596 -0.114769 -0.842958
			 0.335883 -0.011524 -0.941833
			 0.474939 -0.098096 -0.874534
			 0.407206 -0.077776 -0.910019
			 0.374704 -0.115042 -0.919979
			 0.142379  0.939908  0.310325
			 0.089706  0.950768  0.296635
			 0.301600  0.916340  0.263360
			 0.004451  0.969299  0.245844
			-0.151487  0.964284  0.217273
			-0.105333  0.975337  0.193968
			-0.120222  0.970322  0.209813
			-0.281899  0.930022  0.235778
			-0.147787  0.969334  0.196342
			 0.431978  0.870157  0.237113
			 0.451352  0.849013  0.274698
			 0.635355  0.745878  0.199975
			 0.501843  0.839593  0.207934
			 0.565716  0.796148  0.214741
			 0.790251  0.598367  0.132136
			 0.890957  0.449600  0.063680
			 0.962667  0.253454  0.095047
			 0.960736 -0.042810  0.274142
			 0.970466 -0.115077  0.212022
			 0.964854 -0.157190  0.210589
			 0.981816 -0.105689  0.157691
			 0.996871 -0.070837  0.035061
			 0.993358  0.048690  0.104258
			 0.996029  0.081673  0.035425
			 0.974497  0.208052  0.084081
			 0.953802  0.277094  0.116102
			-0.857933 -0.468219 -0.211475
			-0.843334 -0.498234 -0.201371
			-0.968859 -0.212053 -0.127850
			-0.873373 -0.254150 -0.415484
			-0.880129 -0.425384 -0.210763
			-0.887677 -0.402202 -0.224193
			-0.796802 -0.534322 -0.282145
			-0.776039 -0.601679 -0.189068
			-0.470626  0.853128  0.225131
			-0.600996  0.751986  0.270780
			-0.707770  0.636922  0.305602
			-0.861450  0.399868  0.313064
			-0.863537  0.204684  0.460878
			-0.888654  0.303910  0.343414
			-0.836077  0.458858  0.300708
			-0.946888 -0.142999  0.288018
			-0.945492 -0.060188  0.320034
			-0.902817 -0.020955  0.429514
			-0.875643  0.001360  0.482957
			-0.867847 -0.314326  0.384760
			-0.899562 -0.335706  0.279446
			-0.898091 -0.330085  0.290648
			-0.955151 -0.187917  0.228852
			-0.895925 -0.240144  0.373698
			-0.830026 -0.550133 -0.091711
			-0.844806 -0.531339 -0.063095
			-0.777626 -0.628720  0.002944
			-0.784430 -0.602807  0.145925
			-0.771859 -0.599784  0.210934
			-0.746529 -0.608194  0.269805
			-0.812940 -0.524738  0.252545
			-0.411611 -0.348781 -0.841979
			-0.426311 -0.444566 -0.787794
			-0.421404 -0.512979 -0.747844
			-0.468386 -0.503359 -0.726116
			-0.514162 -0.467133 -0.719322
			-0.611627 -0.389928 -0.688381
			-0.891267 -0.106716 -0.440743
			-0.701348 -0.312109 -0.640857
			-0.156405 -0.451577 -0.878416
			-0.134179 -0.558182 -0.818797
			-0.124865 -0.472023 -0.872698
			-0.204013 -0.439348 -0.874844
			 0.284481  0.108414 -0.952532
			 0.181088 -0.050143 -0.982188
			 0.369967  0.024425 -0.928724
			 0.427742 -0.120948 -0.895773
			 0.488850 -0.007100 -0.872339
			 0.428513  0.080296 -0.899960
			 0.091520 -0.230336 -0.968798
			 0.046054 -0.366593 -0.929241
			-0.037735 -0.448305 -0.893084
			-0.755103 -0.463739 -0.463429
			-0.963930 -0.039707 -0.263178
			-0.930714 -0.264522 -0.252585
			-0.641492 -0.700661 -0.312350
			 0.993445 -0.109619  0.032407
			 0.990667 -0.098443 -0.094270
			 0.861554 -0.077389 -0.501733
			 0.874725 -0.231208 -0.425911
			 0.598569 -0.189143 -0.778421
			 0.676875 -0.294785 -0.674494
			 0.781008 -0.354963 -0.513837
			 0.948615 -0.139090 -0.284224
			 0.963116 -0.267485  0.029318
			 0.971159 -0.227662  0.070860
			 0.970290 -0.172757  0.169390
			 0.406754 -0.216257 -0.887572
			 0.443238 -0.293527 -0.846984
			 0.513125 -0.235215 -0.825455
			 0.471406 -0.402095 -0.784918
			 0.308326  0.888408  0.340098
			 0.310960  0.908674  0.278597
			 0.143589  0.961569  0.234025
			 0.052426  0.971380  0.231671
			 0.160116  0.953328  0.255987
			-0.196298  0.952826  0.231493
			-0.145282  0.970685  0.191480
			-0.125210  0.981370  0.145721
			-0.076478  0.982971  0.167091
			-0.355746  0.907181  0.224651
			 0.412784  0.887514  0.204766
			 0.701601  0.693754  0.162669
			 0.503633  0.851493  0.145992
			 0.565561  0.815490  0.122951
			 0.759330  0.637072  0.132503
			 0.977500  0.210927  0.001869
			 0.768731  0.638899  0.029329
			 0.939736  0.337172 -0.056674
			 0.975892  0.141932  0.165804
			 0.994110  0.071577  0.081381