<?xml version="1.0"?>
<VTKFile type="PolyData" version="0.1" byte_order="LittleEndian" compressor="vtkZLibDataCompressor">
	<PolyData>
		<Piece NumberOfPoints="21951" NumberOfVerts="0" NumberOfLines="0" NumberOfStrips="0" NumberOfPolys="43916">
		<PointData Normals="Normals">
		<DataArray type="Float32" Name="Normals" NumberOfComponents="3" format="ascii">
			 0.333843  0.933285 -0.132395
			 0.398522  0.915237 -0.059345
			 0.599200  0.796178 -0.084027
			 0.527706  0.822948 -0.210436
			 0.151495  0.950601 -0.270936
			 0.025316  0.984023 -0.176231
			 0.114891  0.986837 -0.113811
			 0.440610  0.897549  0.016406
			 0.619004  0.785301 -0.011635
			 0.175464  0.983604 -0.041665
			 0.663891  0.735261 -0.136526
			 0.705347  0.706877 -0.053015
			 0.300394  0.863705 -0.404695
			 0.490430  0.810681 -0.319806
			-0.060523  0.904422 -0.422324
			-0.150380  0.945159 -0.289932
			-0.113150  0.973470 -0.198880
			-0.034715  0.994881 -0.094907
			 0.494288  0.864821  0.088117
			 0.642018  0.762315  0.081793
			 0.223424  0.974516  0.019985
			 0.720546  0.692494  0.035580
			-0.008805  0.999635 -0.025536
			 0.590278  0.778673 -0.212700
			 0.718171  0.689734 -0.092183
			 0.767580  0.638415 -0.056981
			 0.798854  0.601524  0.000965
			 0.134162  0.915614 -0.379015
			 0.415782  0.861476 -0.291519
			-0.173755  0.917787 -0.357037
			-0.309028  0.908729 -0.280558
			-0.235930  0.958942 -0.157377
			-0.226201  0.972513 -0.055248
			 0.532393  0.836068  0.132467
			 0.690756  0.701040  0.177196
			 0.274893  0.959105  0.067464
			 0.745817  0.651877  0.137162
			 0.047834  0.998645  0.020479
			 0.802613  0.586811  0.107074
			-0.193089  0.981117  0.011222
			 0.677537  0.714666 -0.173769
			 0.483012  0.816524 -0.316208
			 0.593862  0.777605 -0.206539
			 0.732059  0.678307 -0.063157
			 0.819183  0.573377 -0.013333
			 0.869709  0.493461  0.010103
			 0.893628  0.445823  0.051687
			 0.328442  0.885684 -0.328162
			 0.089090  0.928720 -0.359921
			-0.181510  0.938617 -0.293348
			-0.369508  0.864185 -0.341537
			-0.433002  0.884487 -0.173758
			-0.512523  0.829496 -0.221941
			-0.523925  0.796755 -0.301137
			-0.515067  0.824267 -0.235136
			-0.411439  0.905667 -0.102395
			-0.401932  0.914947 -0.036374
			 0.587285  0.778782  0.220442
			 0.310112  0.939746  0.143901
			 0.763548  0.602922  0.231258
			 0.706371  0.673982  0.216306
			 0.790372  0.579600  0.198435
			 0.834947  0.495521  0.239420
			 0.057920  0.996438  0.061287
			 0.816849  0.499293  0.288901
			 0.889094  0.430406  0.155766
			-0.177035  0.980804  0.081747
			-0.388335  0.921063  0.028955
			 0.393739  0.810995 -0.432732
			 0.527262  0.815632 -0.238199
			 0.385451  0.836518 -0.389443
			 0.294262  0.801676 -0.520312
			 0.646337  0.752962 -0.123678
			 0.819721  0.566147  0.086807
			 0.740635  0.670977 -0.035359
			 0.765864  0.637536  0.083661
			 0.889222  0.450057  0.082053
			 0.933702  0.346311  0.090932
			 0.953792  0.261487  0.148005
			 0.212684  0.824072 -0.525044
			 0.019166  0.783118 -0.621578
			-0.184074  0.894891 -0.406554
			-0.443702  0.766989 -0.463526
			-0.577555  0.706184 -0.409554
			-0.617358  0.693352 -0.371661
			-0.514749  0.838265 -0.179846
			-0.722475  0.627418 -0.290476
			-0.652944  0.702761 -0.282474
			-0.525648  0.845964 -0.089659
			-0.527786  0.849200 -0.017358
			 0.327009  0.899933  0.288421
			 0.451062  0.817334  0.358479
			 0.619875  0.728419  0.291823
			 0.042338  0.990740  0.129004
			 0.074348  0.969370  0.234080
			 0.769749  0.585266  0.254852
			 0.865733  0.438679  0.240973
			 0.918132  0.299587  0.259388
			 0.942516  0.275377  0.189293
			 0.863153  0.361061  0.352989
			 0.893887  0.238387  0.379655
			 0.942825  0.211083  0.257923
			-0.129634  0.976925  0.169742
			-0.342530  0.933798  0.103414
			-0.491188  0.869629  0.049796
			 0.611972  0.755853 -0.232760
			 0.501859  0.801542 -0.325066
			 0.415892  0.797910 -0.436318
			 0.220791  0.842572 -0.491248
			 0.013528  0.727811 -0.685644
			 0.660157  0.739217 -0.133229
			 0.782344  0.580706  0.225210
			 0.857372  0.478733  0.189018
			 0.709790  0.699731 -0.081080
			 0.755256  0.650900 -0.076929
			 0.759828  0.650000 -0.012697
			 0.732506  0.677743  0.064031
			 0.909346  0.372535  0.185221
			 0.941512  0.257423  0.217458
			 0.935767  0.184431  0.300542
			-0.288496  0.722220 -0.628624
			-0.289333  0.625320 -0.724749
			-0.566389  0.589744 -0.575679
			-0.739846  0.481302 -0.470081
			-0.720553  0.529195 -0.448059
			-0.780495  0.518936 -0.348616
			-0.625508  0.768612 -0.134069
			-0.880889  0.322081 -0.346840
			-0.831245  0.434128 -0.347225
			-0.806256  0.575552 -0.136713
			-0.651504  0.757431 -0.042907
			-0.608309  0.793427  0.020832
			 0.181900  0.918820  0.350260
			 0.358472  0.868161  0.343211
			 0.582269  0.754690  0.302334
			-0.045452  0.963787  0.262770
			 0.734445  0.593224  0.329660
			 0.828793  0.458265  0.321085
			 0.947109  0.220689  0.232981
			 0.941770  0.183132  0.282014
			 0.969219  0.135163  0.205780
			 0.934217  0.135364  0.330022
			-0.255713  0.949651  0.181038
			-0.422025  0.900648  0.103574
			 0.484043  0.826551 -0.287256
			-0.034131  0.742184 -0.669327
			 0.131082  0.818321 -0.559615
			 0.299775  0.906044 -0.298694
			-0.281802  0.594111 -0.753406
			-0.183668  0.607936 -0.772450
			 0.612412  0.778788 -0.135797
			 0.752578  0.599027  0.273483
			 0.805493  0.488380  0.335658
			 0.870284  0.429002  0.241998
			 0.694073  0.701336 -0.162452
			 0.719270  0.662255 -0.209927
			 0.769632  0.621011 -0.148362
			 0.777827  0.619056 -0.108424
			 0.798235  0.600981 -0.040540
			 0.727192  0.685927  0.026362
			 0.830742  0.556280  0.020516
			 0.791072  0.587978  0.168781
			 0.825347  0.551562  0.120757
			 0.887669  0.354193  0.294264
			 0.905204  0.323348  0.275774
			 0.892038  0.196633  0.406944
			-0.451913  0.499064 -0.739398
			-0.687824  0.366077 -0.626806
			-0.771759  0.324132 -0.547107
			-0.819049  0.367264 -0.440768
			-0.852968  0.404098 -0.330378
			-0.836771  0.544921 -0.053629
			-0.950742  0.052786 -0.305457
			-0.929056  0.218569 -0.298467
			-0.905338  0.235525 -0.353398
			-0.959697  0.126898 -0.250757
			-0.965559  0.215313 -0.146068
			-0.972731  0.226224 -0.051151
			-0.813013  0.581324 -0.032750
			-0.559216  0.827113  0.056229
			-0.737328  0.674656 -0.034434
			 0.076196  0.949217  0.305255
			 0.387105  0.836347  0.388166
			 0.164331  0.921136  0.352850
			 0.574394  0.719190  0.390944
			-0.199505  0.955460  0.217472
			 0.704596  0.578501  0.410953
			 0.782928  0.466809  0.411233
			 0.908175  0.301812  0.290046
			 0.807447  0.435716  0.397719
			 0.977082 -0.069414  0.201226
			 0.980403 -0.014472  0.196472
			 0.947603  0.062004  0.313376
			 0.942471 -0.010612  0.334120
			 0.907620 -0.086804  0.410719
			-0.384015  0.911468  0.147506
			 0.557676  0.802276 -0.212958
			 0.024829  0.641943 -0.766351
			-0.092898  0.636840 -0.765379
			 0.441087  0.790782 -0.424390
			 0.226738  0.658311 -0.717785
			-0.361128  0.541262 -0.759356
			-0.444624  0.525739 -0.725195
			-0.537485  0.444748 -0.716456
			-0.177129  0.519376 -0.835987
			-0.343508  0.423838 -0.838071
			-0.322731  0.514719 -0.794298
			 0.776414  0.551815  0.304437
			 0.770726  0.485522  0.412614
			 0.744150  0.442142  0.500751
			 0.823571  0.331014  0.460610
			 0.680939  0.657547 -0.322419
			 0.738818  0.604929 -0.297000
			 0.675843  0.624630 -0.391247
			 0.753484  0.614238 -0.234462
			 0.773778  0.617749 -0.140193
			 0.832007  0.554168 -0.025735
			 0.880819  0.472157  0.035002
			 0.908380  0.412946  0.065745
			 0.799833  0.497178  0.336276
			 0.895510  0.410923  0.170895
			 0.914970  0.224571  0.335258
			 0.908180  0.185562  0.375201
			 0.866446  0.098344  0.489489
			 0.840177 -0.043939  0.540530
			-0.773435  0.257332 -0.579291
			-0.711835  0.298478 -0.635768
			-0.860134  0.191266 -0.472849
			-0.825626  0.163259 -0.540082
			-0.951355  0.301760 -0.062167
			-0.986647  0.105066 -0.124456
			-0.931329  0.129708 -0.340298
			-0.936020  0.133786 -0.325526
			-0.906009  0.347890 -0.241082
			-0.780510  0.436096 -0.447911
			-0.925938  0.229625 -0.299852
			-0.934635  0.154757 -0.320169
			-0.927220  0.101093 -0.360617
			-0.990324  0.121199 -0.067590
			-0.894072  0.422355 -0.149166
			-0.466824  0.873769  0.136390
			-0.632680  0.774291  0.013734
			-0.770735  0.602955 -0.205943
			-0.064324  0.952621  0.297279
			 0.481757  0.712886  0.509612
			 0.230647  0.863104  0.449282
			-0.016976  0.936454  0.350378
			-0.248397  0.938658  0.239207
			 0.652602  0.544150  0.527269
			 0.720500  0.453038  0.525011
			 0.832435  0.391052  0.392595
			 0.962004  0.082194  0.260369
			 0.709482  0.492565  0.503999
			 0.914599 -0.248662  0.318865
			 0.939650 -0.285673  0.188278
			 0.952252 -0.252770  0.171241
			 0.960578 -0.190708  0.202290
			 0.917724 -0.079753  0.389129
			 0.871432 -0.290410  0.395307
			 0.818914 -0.216900  0.531351
			 0.804463 -0.346151  0.482720
			 0.282978  0.542280 -0.791110
			 0.029733  0.544174 -0.838445
			 0.517484  0.590762 -0.619040
			-0.522187  0.416926 -0.743972
			-0.466821  0.401537 -0.787938
			-0.664808  0.357355 -0.655994
			-0.060642  0.420959 -0.905050
			-0.243917  0.407450 -0.880051
			-0.448811  0.312018 -0.837385
			-0.552310  0.231949 -0.800720
			 0.759022  0.382635  0.526759
			 0.836345  0.278564  0.472155
			 0.708811  0.301611  0.637666
			 0.839432  0.019771  0.543105
			 0.587810  0.558538 -0.585247
			 0.632235  0.623582 -0.459810
			 0.694855  0.586657 -0.415945
			 0.775811  0.545880 -0.316438
			 0.777289  0.602692 -0.180513
			 0.879263  0.475291 -0.031560
			 0.909907  0.395410  0.125381
			 0.959311  0.257745  0.115278
			 0.968978  0.197555  0.148506
			 0.850320  0.367245  0.376945
			 0.942680  0.184916  0.277778
			-0.808761  0.215669 -0.547168
			-0.753890  0.198790 -0.626204
			-0.749750  0.194423 -0.632515
			-0.882329  0.088667 -0.462205
			-0.880636  0.092707 -0.464634
			-0.958254  0.261251 -0.116177
			-0.938222  0.320504 -0.130446
			-0.908562  0.108465 -0.403424
			-0.940095  0.305594 -0.151109
			-0.936011  0.266799 -0.229567
			-0.957746  0.188372 -0.217346
			-0.937365  0.047569 -0.345085
			-0.970310  0.104466 -0.218142
			-0.902928  0.104051 -0.417007
			-0.919285  0.006988 -0.393529
			-0.943886  0.007724 -0.330182
			-0.935357 -0.026580 -0.352706
			-0.910275  0.339583 -0.236817
			-0.880166  0.389676 -0.271036
			-0.361498  0.909587  0.204866
			-0.486319  0.867667  0.103190
			-0.640117  0.767137 -0.041849
			-0.848696  0.375715 -0.372227
			-0.807847  0.496361 -0.317820
			-0.773624  0.617484 -0.142196
			 0.310483  0.783234  0.538650
			 0.439604  0.697007  0.566507
			 0.577756  0.580133  0.574147
			 0.117068  0.874734  0.470251
			-0.193857  0.940583  0.278788
			-0.079566  0.919379  0.385243
			 0.803159  0.320146  0.502437
			 0.953474  0.035260  0.299405
			 0.693876  0.458319  0.555409
			 0.660599  0.523787  0.537826
			 0.826189 -0.462620  0.321550
			 0.895654 -0.409925  0.172526
			 0.935894 -0.316703  0.154274
			 0.915138 -0.140636  0.377815
			 0.943942 -0.265453  0.196234
			 0.752798 -0.477812  0.452759
			 0.754178 -0.136779  0.642267
			 0.715176 -0.331236  0.615472
			 0.791381 -0.423065  0.441284
			 0.387566  0.554545 -0.736391
			 0.162438  0.453766 -0.876191
			-0.650609  0.271858 -0.709085
			 0.055055  0.279123 -0.958676
			-0.146064  0.220053 -0.964491
			-0.350078  0.220166 -0.910479
			-0.523178  0.091996 -0.847244
			-0.616534  0.005095 -0.787312
			-0.707752  0.101665 -0.699107
			 0.668109  0.236686  0.705415
			 0.790168  0.253345  0.558077
			 0.951835  0.087698  0.293801
			 0.892034  0.132123  0.432226
			 0.796644  0.159348  0.583066
			 0.635821  0.083057  0.767354
			 0.706563 -0.026500  0.707154
			 0.522730  0.539237 -0.660286
			 0.747387  0.366446 -0.554193
			 0.650951  0.349054 -0.674109
			 0.789907  0.434321 -0.432911
			 0.734167  0.300127 -0.609034
			 0.848565  0.469193 -0.244533
			 0.917990  0.289045 -0.271564
			 0.947511  0.319114  0.019708
			 0.944557  0.240944  0.223064
			 0.960284  0.145940  0.237815
			 0.979409  0.079565  0.185546
			-0.844070  0.157841 -0.512476
			-0.760013  0.027455 -0.649328
			-0.827183  0.046360 -0.560017
			-0.854977  0.066855 -0.514340
			-0.907317  0.370846 -0.198111
			-0.935446  0.310756 -0.168438
			-0.962101  0.228661 -0.148580
			-0.973038  0.177284 -0.147537
			-0.932885 -0.068737 -0.353555
			-0.963573 -0.006928 -0.267357
			-0.974327  0.149168 -0.168632
			-0.980293  0.023855 -0.196106
			-0.981255  0.055016 -0.184693
			-0.868302  0.033366 -0.494913
			-0.842785 -0.017877 -0.537954
			-0.887707 -0.047513 -0.457950
			-0.943627 -0.064201 -0.324726
			-0.932921 -0.122276 -0.338684
			-0.874700  0.378594 -0.302599
			-0.260106  0.927146  0.269715
			-0.427737  0.887659  0.170594
			-0.600988  0.797586  0.051665
			-0.747045  0.664328 -0.024327
			-0.839188  0.449515 -0.306104
			-0.845667  0.518480 -0.126596
			 0.249118  0.793568  0.555149
			 0.342486  0.760356  0.551871
			 0.541659  0.656074  0.525522
			 0.033961  0.880735  0.472390
			 0.865504  0.008116  0.500836
			 0.764210  0.185438  0.617734
			 0.712157  0.393204  0.581570
			 0.682051  0.501812  0.531969
			 0.779151 -0.504448  0.372098
			 0.861496 -0.443651  0.246979
			 0.902633 -0.404452  0.147214
			 0.864866 -0.465539  0.187828
			 0.861679 -0.487975  0.139248
			 0.923061 -0.240847  0.299917
			 0.874082 -0.014350  0.485566
			 0.614594 -0.019059  0.788613
			 0.642784 -0.127241  0.755406
			 0.705302 -0.378808  0.599211
			 0.655654 -0.268324  0.705776
			 0.822190 -0.257260  0.507761
			 0.885473 -0.284856  0.367145
			 0.868108 -0.383218  0.315486
			 0.329496  0.364465 -0.870975
			 0.211019  0.326630 -0.921295
			 0.158648  0.103542 -0.981891
			 0.003513  0.071516 -0.997433
			-0.180347 -0.030078 -0.983143
			-0.353305 -0.015566 -0.935379
			-0.529305 -0.102651 -0.842199
			-0.717461 -0.006000 -0.696572
			-0.511809 -0.231848 -0.827223
			-0.571874 -0.175818 -0.801279
			-0.678688 -0.084718 -0.729524
			 0.733697  0.141388  0.664603
			 0.598902  0.121689  0.791523
			 0.966495  0.013624  0.256323
			 0.927510  0.004395  0.373773
			 0.848241  0.041691  0.527966
			 0.768358  0.124179  0.627858
			 0.842728  0.053421  0.535682
			 0.483963  0.205954 -0.850507
			 0.618895  0.111167 -0.777568
			 0.785220  0.246095 -0.568214
			 0.664541 -0.004692 -0.747237
			 0.956883  0.000283 -0.290473
			 0.848305  0.096098 -0.520715
			 0.994651  0.099785 -0.026683
			 0.986913  0.097370  0.128534
			 0.968823 -0.001023  0.247752
			 0.975326 -0.057649  0.213108
			-0.804045 -0.062985 -0.591222
			-0.767291 -0.065562 -0.637939
			-0.802019 -0.053139 -0.594931
			-0.844737 -0.028938 -0.534399
			-0.810752 -0.034333 -0.584383
			-0.814211  0.485542 -0.318291
			-0.858594  0.390260 -0.332436
			-0.933786  0.259571 -0.246305
			-0.951563  0.175267 -0.252606
			-0.945235 -0.124879 -0.301556
			-0.970030 -0.064519 -0.234265
			-0.946519  0.017591 -0.322169
			-0.982740 -0.031749 -0.182248
			-0.983328 -0.045301 -0.176109
			-0.818140 -0.147120 -0.555881
			-0.885667 -0.141300 -0.442299
			-0.934006 -0.162853 -0.317980
			-0.942434 -0.156011 -0.295768
			-0.790805  0.491962 -0.364146
			-0.169079  0.912840  0.371665
			-0.390344  0.853705  0.344701
			-0.587492  0.781236  0.211005
			-0.753986  0.647182  0.112520
			-0.826284  0.560651  0.054081
			-0.846144  0.526687 -0.081489
			-0.902674  0.383282 -0.195642
			-0.834827  0.470141 -0.286412
			-0.904990  0.370384 -0.209306
			 0.181626  0.803560  0.566836
			 0.530638  0.662903  0.528188
			 0.439096  0.654411  0.615581
			 0.105873  0.791438  0.602011
			 0.284080  0.743444  0.605466
			 0.048331  0.813835  0.579083
			-0.186151  0.837920  0.513068
			 0.751588  0.255577  0.608109
			 0.715082  0.315234  0.623927
			 0.632731  0.498795  0.592330
			 0.883818 -0.407288  0.230178
			 0.859152 -0.477355  0.184363
			 0.869927 -0.454022  0.192593
			 0.829613 -0.523464  0.194237
			 0.868722 -0.471408  0.151975
			 0.848576 -0.482490  0.217078
			 0.887596 -0.296528  0.352484
			 0.790775  0.157263  0.591560
			 0.872422 -0.087297  0.480894
			 0.484760  0.107751  0.867985
			 0.576539  0.043331  0.815920
			 0.630411 -0.074970  0.772633
			 0.599406  0.122043  0.791087
			 0.711094 -0.193464  0.675957
			 0.790209 -0.093695  0.605633
			 0.863645 -0.087270  0.496489
			 0.875900 -0.202557  0.437916
			 0.901975 -0.341583  0.264126
			 0.885924 -0.267108  0.379200
			 0.272445  0.111205 -0.955723
			 0.209913 -0.071298 -0.975117
			 0.091597 -0.087712 -0.991926
			-0.066107 -0.167360 -0.983677
			-0.266141 -0.200361 -0.942881
			-0.418521 -0.179303 -0.890331
			-0.396629 -0.278395 -0.874747
			-0.356055 -0.319811 -0.878035
			-0.464031 -0.272599 -0.842831
			-0.579535 -0.236346 -0.779923
			-0.653662 -0.172184 -0.736939
			-0.718287 -0.156688 -0.677874
			 0.732828  0.245088  0.634740
			 0.527276  0.297151  0.796041
			 0.968945  0.042188  0.243650
			 0.915198  0.082024  0.394568
			 0.860309  0.170964  0.480250
			 0.407507 -0.009389 -0.913154
			 0.462556 -0.083096 -0.882688
			 0.670834 -0.296698 -0.679671
			 0.525213 -0.145775 -0.838392
			 0.805728 -0.194486 -0.559445
			 0.879825 -0.336690 -0.335481
			 0.985621 -0.168093 -0.017194
			 0.986615 -0.101804  0.127388
			 0.967584 -0.177788  0.179369
			 0.971216 -0.220995  0.088888
			 0.988977 -0.073382  0.128610
			-0.757861 -0.143837 -0.636363
			-0.769372 -0.159056 -0.618683
			-0.736456  0.530974 -0.419164
			-0.747997  0.558014 -0.359335
			-0.776081  0.363972 -0.514998
			-0.868665  0.219311 -0.444211
			-0.954811 -0.185720 -0.232041
			-0.966951 -0.116632 -0.226724
			-0.867730  0.003507 -0.497024
			-0.883697 -0.213932 -0.416309
			-0.950493 -0.195564 -0.241492
			-0.980768 -0.128539 -0.146872
			-0.981839 -0.139643 -0.128423
			-0.779269 -0.201380 -0.593453
			-0.830609 -0.215130 -0.513622
			-0.878845 -0.217779 -0.424505
			-0.899241 -0.186103 -0.395892
			-0.946035 -0.128262 -0.297600
			-0.947461 -0.211417 -0.240041
			-0.966563 -0.136369 -0.217164
			-0.561891  0.676140  0.476565
			-0.605994  0.686731  0.401463
			-0.765816  0.557513  0.320477
			-0.850577  0.468380  0.239038
			-0.835241  0.490304  0.248946
			-0.830402  0.400342  0.387504
			-0.927576  0.365181  0.079032
			-0.956187  0.274235  0.102482
			-0.776472  0.543960 -0.318117
			-0.933776  0.325113 -0.149548
			-0.961583  0.262996 -0.078683
			 0.532534  0.443588  0.720859
			 0.282410  0.603402  0.745755
			 0.085016  0.713272  0.695712
			-0.114737  0.721029  0.683340
			-0.137064  0.728374  0.671331
			-0.353434  0.693946  0.627315
			 0.652568  0.269422  0.708214
			 0.645795  0.219166  0.731379
			 0.638471  0.154857  0.753906
			 0.843745 -0.452574  0.288568
			 0.906458 -0.372528  0.198887
			 0.777416 -0.558592  0.289137
			 0.777309 -0.556906  0.292653
			 0.878946 -0.352655  0.321072
			 0.805407 -0.486746  0.338228
			 0.867726 -0.310676  0.387985
			 0.714644  0.162789  0.680282
			 0.839491 -0.155724  0.520581
			 0.478928  0.248532  0.841938
			 0.622279  0.105698  0.775626
			 0.702613 -0.024953  0.711135
			 0.584549  0.303171  0.752589
			 0.540339  0.243132  0.805556
			 0.551801  0.342130  0.760568
			 0.724741  0.054845  0.686835
			 0.832360  0.033271  0.553235
			 0.868685 -0.018582  0.495016
			 0.891402 -0.127671  0.434859
			 0.925904 -0.237938  0.293407
			 0.323365 -0.147746 -0.934669
			 0.176967 -0.196300 -0.964442
			 0.043772 -0.216973 -0.975196
			-0.124458 -0.280987 -0.951607
			-0.269740 -0.312128 -0.910943
			-0.171296 -0.344798 -0.922915
			-0.187243 -0.337898 -0.922369
			-0.360689 -0.316186 -0.877457
			-0.282958 -0.350156 -0.892931
			-0.457941 -0.263941 -0.848896
			-0.651833 -0.221146 -0.725402
			-0.576415 -0.289951 -0.763986
			-0.733208 -0.194300 -0.651654
			 0.866309  0.298828  0.400264
			 0.704775  0.377931  0.600384
			 0.569876  0.456341  0.683370
			 0.391080  0.417179  0.820377
			 0.922026  0.183189  0.341044
			 0.997529  0.003956  0.070142
			 0.969152  0.212634  0.124620
			 0.393919 -0.187592 -0.899798
			 0.248205 -0.245516 -0.937079
			 0.619668 -0.491352 -0.612033
			 0.453621 -0.301550 -0.838627
			 0.742351 -0.433646 -0.510751
			 0.712198 -0.519593 -0.472014
			 0.743951 -0.552007 -0.376597
			 0.904922 -0.411282 -0.109377
			 0.955273 -0.283121  0.085414
			 0.940395 -0.331114  0.077597
			 0.915155 -0.396417 -0.073113
			 0.962482 -0.260089 -0.077337
			 0.992021 -0.125328 -0.013698
			-0.734180  0.498354 -0.461111
			-0.841386  0.116371 -0.527757
			-0.839473  0.292825 -0.457754
			-0.875006  0.105188 -0.472546
			-0.962354 -0.217508 -0.162986
			-0.884985 -0.202714 -0.419176
			-0.892210 -0.359128 -0.273841
			-0.939776 -0.310556 -0.142748
			-0.972744 -0.207573 -0.103354
			-0.975704 -0.198933 -0.091796
			-0.854577 -0.141608 -0.499645
			-0.758092 -0.173829 -0.628554
			-0.924456 -0.098040 -0.368469
			-0.956945 -0.091631 -0.275427
			-0.972429 -0.173688 -0.155611
			-0.961080 -0.235166 -0.144988
			-0.972224 -0.125960 -0.197268
			-0.981511 -0.118739 -0.150123
			-0.600243  0.517665  0.609698
			-0.744794  0.448041  0.494511
			-0.718111  0.432470  0.545239
			-0.824188  0.381647  0.418401
			-0.887992  0.338353  0.311428
			-0.828327  0.315985  0.462632
			-0.835268  0.280306  0.473029
			-0.821167  0.266814  0.504476
			-0.973210  0.131268  0.188760
			-0.909753  0.206805  0.359973
			-0.917219  0.111367  0.382502
			-0.870991  0.383588 -0.306975
			-0.956532  0.100576 -0.273736
			-0.995371 -0.016554 -0.094675
			-0.999495  0.002656  0.031674
			-0.994335 -0.030834  0.101719
			 0.500202  0.187537  0.845357
			 0.288659  0.439017  0.850847
			-0.004590  0.621899  0.783084
			-0.341361  0.646469  0.682312
			-0.319993  0.683243  0.656341
			-0.464649  0.535328  0.705355
			 0.534603  0.249706  0.807370
			 0.806813 -0.374997  0.456542
			 0.726469 -0.538470  0.426957
			 0.690937 -0.616210  0.378009
			 0.720721 -0.583859  0.373724
			 0.690775 -0.619649  0.372646
			 0.808851 -0.386149  0.443451
			 0.868753 -0.196455  0.454614
			 0.714998 -0.532791  0.452673
			 0.735058 -0.094264  0.671420
			 0.531477  0.200043  0.823113
			 0.403987  0.391514  0.826748
			 0.475879  0.436669  0.763452
			 0.652969  0.165119  0.739167
			 0.416289  0.374010  0.828746
			 0.504176  0.329017  0.798470
			 0.436353  0.433766  0.788316
			 0.792680  0.199844  0.575952
			 0.848438  0.115821  0.516467
			 0.837028 -0.032117  0.546217
			 0.788534  0.103277  0.606257
			 0.085692 -0.291763 -0.952644
			-0.053614 -0.318781 -0.946311
			 0.036032 -0.338692 -0.940207
			-0.052073 -0.359716 -0.931608
			-0.151534 -0.388192 -0.909035
			-0.013455 -0.387740 -0.921671
			-0.219148 -0.432794 -0.874450
			-0.301464 -0.339408 -0.891023
			-0.413529 -0.298211 -0.860270
			-0.657785 -0.261453 -0.706371
			-0.524194 -0.342546 -0.779668
			-0.473805 -0.423458 -0.772135
			-0.616602 -0.297104 -0.729062
			-0.510429 -0.341771 -0.789084
			-0.707095 -0.223553 -0.670850
			 0.801802  0.451734  0.391216
			 0.434547  0.543055  0.718512
			 0.623916  0.532667  0.571835
			 0.374654  0.510897  0.773705
			 0.989577  0.000295 -0.144003
			 0.979021  0.168855 -0.114044
			 0.937789  0.341581  0.062242
			 0.313562 -0.316314 -0.895335
			 0.190801 -0.348465 -0.917697
			 0.424941 -0.509932 -0.747927
			 0.679061 -0.578772 -0.451552
			 0.559598 -0.607525 -0.563706
			 0.299982 -0.425457 -0.853813
			 0.818750 -0.543358 -0.185503
			 0.797418 -0.549287 -0.249817
			 0.888545 -0.458568 -0.014253
			 0.851591 -0.466328 -0.239438
			 0.903172 -0.379761 -0.200156
			 0.968765 -0.186305 -0.163660
			-0.933826 -0.176582 -0.311108
			-0.970278 -0.218252 -0.104533
			-0.881002 -0.420394 -0.217038
			-0.895563 -0.425340 -0.130585
			-0.939120 -0.340277 -0.047592
			-0.970586 -0.237773 -0.037769
			-0.968232 -0.249951  0.007142
			-0.848229 -0.137761 -0.511399
			-0.656416 -0.240297 -0.715105
			-0.636252 -0.224210 -0.738182
			-0.741650 -0.191731 -0.642802
			-0.830081 -0.208873 -0.517047
			-0.899159 -0.149923 -0.411140
			-0.939843 -0.180352 -0.290119
			-0.979695 -0.172857 -0.101581
			-0.972106 -0.221291 -0.077715
			-0.958999 -0.271695 -0.080637
			-0.953489 -0.300300 -0.026060
			-0.978692 -0.150875 -0.139282
			-0.953443 -0.204386 -0.221748
			-0.788613  0.403923  0.463611
			-0.586001  0.559243  0.586387
			-0.874506  0.178370  0.451024
			-0.882479  0.239072  0.405062
			-0.854923  0.118516  0.505035
			-0.953201 -0.080840  0.291329
			-0.876398 -0.011592  0.481449
			-0.945289 -0.288875 -0.151593
			-0.945022 -0.324101  0.043495
			-0.951174 -0.282190  0.125050
			 0.349260  0.215339  0.911947
			 0.432984  0.257750  0.863765
			 0.377469  0.213180  0.901150
			 0.156546  0.380948  0.911248
			-0.262810  0.636059  0.725507
			-0.059578  0.496214  0.866154
			-0.538373  0.571276  0.619514
			 0.414565  0.292532  0.861720
			 0.714020 -0.325305  0.619961
			 0.606429 -0.447420  0.657313
			 0.545193 -0.549263  0.633305
			 0.671745 -0.583138  0.456846
			 0.535106 -0.696796  0.477636
			 0.495310 -0.704897  0.507728
			 0.795181 -0.247614  0.553511
			 0.675722 -0.411947  0.611310
			 0.788513 -0.108421  0.605386
			 0.511201 -0.641187  0.572322
			 0.556169 -0.094250  0.825708
			 0.418618  0.041643  0.907207
			 0.337065  0.501851  0.796576
			 0.654672  0.305078  0.691616
			 0.356688  0.453166  0.816954
			 0.273698  0.430616  0.860035
			 0.380654  0.357319  0.852893
			 0.676053  0.319025  0.664210
			 0.587182  0.332394  0.738060
			 0.472762  0.403909  0.783169
			 0.768669  0.219778  0.600704
			 0.758162  0.024493  0.651606
			 0.707130  0.218975  0.672322
			 0.695990  0.147042  0.702834
			 0.119533 -0.406126 -0.905965
			-0.105053 -0.471251 -0.875720
			 0.237645 -0.468609 -0.850841
			 0.055439 -0.493837 -0.867785
			-0.037618 -0.533131 -0.845196
			-0.163579 -0.453375 -0.876181
			-0.270487 -0.423733 -0.864458
			-0.382274 -0.427880 -0.819015
			-0.285658 -0.488600 -0.824421
			-0.278399 -0.430675 -0.858495
			-0.400501 -0.402241 -0.823287
			-0.578560 -0.303830 -0.756939
			-0.532522 -0.273119 -0.801140
			-0.383228 -0.345965 -0.856414
			-0.398540 -0.301368 -0.866224
			 0.891542  0.392700  0.225699
			 0.829598  0.416181  0.372237
			 0.184558  0.560313  0.807458
			 0.503018  0.584482  0.636675
			 0.721050  0.540573  0.433437
			 0.948861  0.018268 -0.315165
			 0.916205 -0.151917 -0.370796
			 0.961442  0.257379  0.096875
			 0.966843  0.171113 -0.189564
			 0.984152  0.177239 -0.005491
			 0.447784 -0.551798 -0.703568
			 0.749536 -0.541817 -0.380304
			 0.597866 -0.558012 -0.575481
			 0.712741 -0.527100 -0.462781
			 0.801534 -0.501975 -0.324907
			 0.831870 -0.506884 -0.225967
			 0.824642 -0.414456 -0.384957
			-0.890388 -0.452283 -0.051471
			-0.910253 -0.413892 -0.011507
			-0.945267 -0.325584  0.021573
			-0.961611 -0.274171  0.011595
			-0.963080 -0.263236  0.056419
			-0.945464 -0.312351  0.092383
			-0.908737 -0.377842  0.177294
			-0.948681 -0.313434  0.042000
			-0.498976 -0.250293 -0.829684
			-0.747809 -0.252020 -0.614221
			-0.648112 -0.255993 -0.717229
			-0.883791 -0.240828 -0.401143
			-0.843860 -0.244344 -0.477698
			-0.906912 -0.231804 -0.351820
			-0.979651 -0.195833 -0.043978
			-0.977035 -0.172815 -0.124647
			-0.971136 -0.237107  0.025970
			-0.937053 -0.318730  0.142629
			-0.946367 -0.192432 -0.259538
			-0.725794  0.484793  0.488057
			-0.850152  0.284770  0.442886
			-0.916238  0.104261  0.386829
			-0.908241  0.003507  0.418432
			-0.899754  0.132557  0.415778
			-0.864987 -0.009553  0.501704
			-0.929560 -0.304749  0.207476
			-0.892796 -0.181551  0.412255
			-0.876525 -0.141641  0.460045
			-0.919075 -0.385400  0.082264
			-0.906240 -0.396811  0.145845
			 0.292433  0.357162  0.887084
			-0.229296  0.424599  0.875865
			-0.362217  0.481204  0.798274
			-0.710778  0.419598  0.564563
			-0.549714  0.369989  0.748948
			 0.421247  0.183707  0.888146
			 0.462472 -0.314673  0.828915
			 0.323799 -0.445472  0.834691
			 0.495957 -0.525803  0.691056
			 0.495961 -0.626299  0.601475
			 0.317609 -0.769195  0.554493
			 0.278590 -0.777009  0.564486
			 0.265870 -0.714621  0.647016
			 0.267801 -0.607210  0.748050
			 0.713692 -0.193755  0.673129
			 0.307414 -0.580656  0.753880
			 0.505801 -0.360374  0.783771
			 0.705126 -0.051856  0.707183
			 0.192601 -0.740979  0.643316
			 0.393647 -0.233689  0.889062
			 0.205452  0.468119  0.859450
			 0.170118  0.469420  0.866432
			 0.183517  0.477580  0.859208
			 0.235426  0.418367  0.877236
			 0.364858  0.430481  0.825569
			 0.601329  0.266994  0.753072
			 0.476318  0.383072  0.791440
			 0.364938  0.487645  0.793110
			 0.385095  0.420883  0.821316
			 0.679534  0.072521  0.730051
			 0.594820  0.148684  0.789989
			 0.233943 -0.547080 -0.803725
			 0.062744 -0.546321 -0.835223
			-0.081414 -0.515679 -0.852905
			-0.189381 -0.505271 -0.841924
			-0.109416 -0.493262 -0.862972
			-0.126580 -0.404984 -0.905520
			-0.289510 -0.372548 -0.881698
			-0.305511 -0.318946 -0.897182
			-0.407757 -0.282155 -0.868403
			 0.936459  0.338911  0.090462
			 0.176947  0.742796  0.645712