<?xml version="1.0"?>
<VTKFile type="PolyData" version="0.1" byte_order="LittleEndian" compressor="vtkZLibDataCompressor">
	<PolyData>
		<Piece NumberOfPoints="26878" NumberOfVerts="0" NumberOfLines="0" NumberOfStrips="0" NumberOfPolys="53810">
		<PointData Normals="Normals">
		<DataArray type="Float32" Name="Normals" NumberOfComponents="3" format="ascii">
			-0.459510  0.834112  0.305136
			-0.401267  0.800248  0.445632
			-0.176031  0.977934  0.112505
			-0.395892  0.915261  0.074611
			-0.551844  0.697748  0.456746
			-0.633012  0.682463  0.365431
			-0.225123  0.902266  0.367743
			-0.469296  0.726630  0.501768
			-0.095744  0.986895 -0.129889
			 0.141507  0.988173  0.059084
			 0.073762  0.996170 -0.046961
			 0.187447  0.952018 -0.241920
			-0.273437  0.961535 -0.026135
			-0.533892  0.830065  0.161092
			-0.629032  0.472925  0.616977
			-0.678790  0.647247  0.346865
			-0.731809  0.484510  0.479277
			-0.705002  0.461413  0.538582
			-0.005354  0.972475  0.232948
			-0.188564  0.879901  0.436141
			-0.432628  0.674848  0.597841
			 0.039882  0.988352 -0.146864
			 0.183509  0.943880 -0.274617
			 0.349992  0.923566 -0.156625
			 0.393792  0.891412 -0.224306
			 0.059774  0.985172  0.160819
			 0.268804  0.956842 -0.110441
			 0.387372  0.813170 -0.434392
			 0.488119  0.782339 -0.386893
			-0.021586  0.993563 -0.111209
			-0.301576  0.952605 -0.039945
			-0.425431  0.904367  0.033582
			-0.561664  0.810181  0.167750
			-0.664875  0.676411  0.316874
			-0.741475  0.232075  0.629568
			-0.486129  0.546956  0.681555
			-0.719211  0.210966  0.661988
			-0.580579  0.436836  0.687097
			-0.749940  0.427813  0.504546
			-0.761570  0.280581  0.584196
			-0.085885  0.940696  0.328198
			-0.333305  0.813976  0.475763
			-0.544125  0.553596  0.630443
			 0.255988  0.929703 -0.264805
			 0.379085  0.840942 -0.386149
			 0.380380  0.877253 -0.292809
			 0.502256  0.780887 -0.371422
			 0.426783  0.837871 -0.340335
			-0.142923  0.956986  0.252488
			 0.030593  0.994904  0.096074
			 0.109951  0.993920 -0.005847
			 0.556603  0.658531 -0.506488
			 0.574078  0.675966 -0.462066
			-0.104321  0.980377 -0.167269
			-0.328484  0.943109 -0.051413
			-0.449814  0.893009  0.014216
			-0.537852  0.838051  0.091575
			-0.616329  0.767282  0.177249
			-0.733523  0.599573  0.320089
			-0.732246  0.481711  0.481425
			-0.770083  0.121503  0.626267
			-0.667755  0.320907  0.671655
			-0.742194  0.024624  0.669732
			-0.777743 -0.031663  0.627784
			-0.603228  0.473294  0.641957
			-0.712616  0.190860  0.675094
			-0.769280  0.149215  0.621244
			-0.766540  0.251025  0.591103
			-0.772801  0.140733  0.618848
			-0.240204  0.919221  0.311986
			-0.487307  0.666679  0.563978
			-0.479507  0.555697  0.679172
			-0.594493  0.338968  0.729163
			 0.175724  0.933351 -0.313013
			 0.533357  0.761014 -0.369307
			 0.436367  0.807222 -0.397463
			 0.585764  0.718292 -0.375416
			 0.585823  0.640213 -0.496930
			 0.343887  0.915379 -0.209339
			 0.494479  0.770832 -0.401633
			-0.061643  0.985639  0.157213
			-0.084520  0.966025  0.244238
			-0.024236  0.959440  0.280870
			-0.040272  0.990530  0.131258
			 0.146537  0.988994  0.020435
			 0.672726  0.471805 -0.569948
			 0.633401  0.561456 -0.532513
			 0.633096  0.519974 -0.573426
			-0.079543  0.980476 -0.179831
			-0.184948  0.970817 -0.152671
			-0.292591  0.954288 -0.061032
			-0.628728  0.766098  0.133401
			-0.418577  0.900539 -0.117569
			-0.586295  0.809933  0.016301
			-0.694048  0.689502  0.207083
			-0.782088  0.511116  0.356510
			-0.786581  0.278494  0.551119
			-0.848649  0.111487  0.517074
			-0.834907  0.044489  0.548591
			-0.723766  0.226221  0.651910
			-0.775352  0.021182  0.631174
			-0.802548  0.111471  0.586081
			-0.710695 -0.011049  0.703414
			-0.716948 -0.317896  0.620425
			-0.769935 -0.026950  0.637552
			-0.726231 -0.284416  0.625856
			-0.719888 -0.297434  0.627132
			-0.729935 -0.359094  0.581589
			-0.659380 -0.401843  0.635406
			-0.735782 -0.029060  0.676594
			-0.678661  0.098366  0.727835
			-0.732046 -0.056229  0.678931
			-0.294857  0.812351  0.503135
			-0.228077  0.773539  0.591285
			-0.483196  0.384084  0.786766
			-0.393333  0.601238  0.695559
			-0.583121  0.139704  0.800283
			-0.616033 -0.080618  0.783584
			 0.048889  0.959411 -0.277743
			 0.483829  0.771230 -0.413660
			 0.257059  0.888885 -0.379216
			 0.708782  0.582837 -0.397403
			 0.643347  0.635017 -0.427619
			 0.732328  0.520554 -0.438997
			 0.464218  0.800748 -0.378556
			 0.589638  0.591986 -0.549436
			 0.650597  0.458887 -0.605100
			 0.287682  0.946683 -0.145018
			-0.040883  0.875587  0.481327
			-0.102441  0.947524  0.302827
			 0.109604  0.985160  0.132087
			 0.705711  0.386993 -0.593472
			 0.671405  0.352095 -0.652107
			-0.074367  0.972615 -0.220203
			-0.049230  0.992727 -0.109859
			-0.118852  0.987399 -0.104489
			-0.761358  0.585953  0.277476
			-0.731543  0.661860  0.163664
			-0.773185  0.577611  0.261822
			-0.005749  0.957693 -0.287734
			-0.158403  0.918971 -0.361111
			-0.339785  0.886412 -0.314356
			-0.482623  0.844935 -0.230563
			-0.593480  0.804350 -0.028327
			-0.749976  0.661337 -0.013010
			-0.702234  0.711673 -0.019748
			-0.846415  0.439614  0.300535
			-0.868796  0.319541  0.378269
			-0.880462  0.123882  0.457646
			-0.815448 -0.122938  0.565624
			-0.803519 -0.108276  0.585348
			-0.830817  0.011711  0.556423
			-0.597392 -0.563449  0.570656
			-0.633427 -0.584019  0.507633
			-0.763725 -0.282288  0.580549
			-0.711467 -0.476087  0.516871
			-0.823697 -0.234223  0.516394
			-0.640529 -0.565094  0.519992
			-0.500955 -0.697348  0.512592
			-0.637201 -0.543545  0.546383
			-0.668967 -0.366505  0.646651
			-0.139593  0.870935  0.471154
			-0.522432  0.335152  0.784052
			-0.280949  0.842493  0.459645
			-0.449924  0.662407  0.598986
			-0.528179  0.553523  0.643925
			-0.655213  0.197647  0.729131
			-0.699156 -0.077984  0.710704
			-0.600238 -0.183181  0.778562
			-0.604056 -0.442389  0.662879
			 0.585439  0.660510 -0.470094
			 0.708421  0.554741 -0.436350
			 0.454513  0.783631 -0.423486
			 0.274614  0.920062 -0.279415
			 0.776578  0.454178 -0.436633
			 0.804071  0.382551 -0.455109
			 0.216148  0.940918 -0.260678
			 0.395415  0.790406 -0.467873
			 0.475765  0.638517 -0.604933
			 0.638601  0.488489 -0.594615
			 0.654993  0.450488 -0.606666
			 0.645582  0.406028 -0.646812
			 0.126569  0.991809 -0.017163
			-0.012648  0.964256  0.264670
			 0.629323  0.474232 -0.615675
			 0.739503  0.407325 -0.535931
			 0.689435  0.346225 -0.636245
			 0.665846  0.445685 -0.598342
			 0.745946  0.404075 -0.529422
			 0.648360  0.378849 -0.660381
			 0.153587  0.969657 -0.190202
			-0.842871  0.355140  0.404282
			-0.837925  0.387044  0.384810
			-0.856969  0.378971  0.349263
			-0.894579  0.415267  0.165173
			 0.367430  0.886314 -0.281855
			 0.381673  0.831465 -0.403721
			 0.230128  0.801925 -0.551324
			-0.284709  0.886758 -0.364145
			-0.212788  0.861915 -0.460244
			-0.377069  0.864549 -0.332226
			-0.475963  0.834631 -0.277219
			-0.686429  0.717577 -0.117894
			-0.869136  0.490020  0.066954
			-0.812824  0.581907  0.026482
			-0.851727  0.180433  0.491941
			-0.794498 -0.038781  0.606028
			-0.804758 -0.228554  0.547839
			-0.752785 -0.208362  0.624420
			-0.532310 -0.696679  0.480920
			-0.633852 -0.603581  0.483654
			-0.549589 -0.706667  0.445617
			-0.663247 -0.565187  0.490578
			-0.787143 -0.372400  0.491655
			-0.726080 -0.500665  0.471321
			-0.523047 -0.725527  0.447251
			-0.440706 -0.782866  0.439201
			-0.393553 -0.803849  0.446029
			-0.444977 -0.781409  0.437488
			-0.574855 -0.643354  0.505606
			-0.150947  0.964250  0.217801
			-0.144786  0.955601  0.256639
			-0.292530  0.836816  0.462780
			-0.424076  0.717967  0.551981
			-0.286848  0.920126  0.266619
			-0.633829  0.390731  0.667526
			-0.670995  0.217221  0.708929
			-0.723310 -0.044794  0.689069
			-0.628740 -0.355359  0.691669
			-0.698515 -0.317024  0.641539
			-0.590976 -0.540284  0.599033
			 0.597068  0.677428 -0.429651
			 0.771341  0.556511 -0.308753
			 0.795341  0.532517 -0.289583
			 0.707362  0.616142 -0.346423
			 0.636744  0.712422 -0.294978
			 0.801533  0.445969 -0.398317
			 0.820576  0.362056 -0.442233
			-0.013052  0.999022  0.042249
			 0.038978  0.998226 -0.045001
			 0.294949  0.849671 -0.437110
			 0.402966  0.652069 -0.642203
			 0.433251  0.513122 -0.740945
			 0.542759  0.418747 -0.728054
			 0.631321  0.397593 -0.665848
			 0.610801  0.439181 -0.658819
			 0.623046  0.424504 -0.656970
			 0.782424  0.390076 -0.485441
			 0.736996  0.412549 -0.535388
			 0.666896  0.385438 -0.637721
			-0.888721  0.111802  0.444606
			-0.941039  0.106237  0.321186
			-0.926890  0.344903  0.148043
			-0.952549  0.149186  0.265318
			 0.672148  0.637313 -0.376894
			 0.586266  0.634411 -0.503800
			-0.064762  0.770975 -0.633564
			 0.636857  0.537133 -0.553084
			 0.549108  0.502404 -0.667885
			 0.252728  0.636692 -0.728527
			-0.277377  0.833204 -0.478364
			-0.628119  0.771509 -0.101196
			-0.516369  0.825258 -0.228717
			-0.666656  0.741259 -0.078131
			-0.829077  0.558077  0.034382
			-0.918209  0.362041  0.160679
			-0.928101  0.259752  0.266755
			-0.803714 -0.067721  0.591150
			-0.724119 -0.216307  0.654876
			-0.680500 -0.419029  0.601111
			-0.511798 -0.725499  0.460124
			-0.529814 -0.736239  0.421010
			-0.652606 -0.565265  0.504560
			-0.490618 -0.677269  0.548270
			-0.528398 -0.723139  0.444821
			-0.369670 -0.793033  0.484193
			-0.346808 -0.806845  0.478252
			-0.489782 -0.715416  0.498290
			-0.565285 -0.674648  0.474661
			-0.563662 -0.701118  0.436715
			-0.587923 -0.649720  0.481882
			-0.013235  0.982919  0.183562
			-0.127621  0.935247  0.330192
			-0.239967  0.872340  0.425957
			-0.364945  0.746202  0.556774
			-0.420382  0.506681  0.752697
			-0.606227  0.412504  0.679947
			-0.689521  0.225693  0.688203
			-0.683287 -0.034888  0.729316
			-0.703939 -0.236996  0.669554
			-0.654129 -0.528163  0.541443
			-0.689286 -0.463983  0.556421
			 0.697440  0.601489 -0.389601
			 0.786099  0.539315 -0.301973
			 0.717944  0.541372 -0.437576
			 0.841168  0.389160 -0.375488
			 0.861414  0.359292 -0.358993
			 0.837102  0.423299 -0.346524
			 0.765364  0.430240 -0.478656
			 0.811562  0.443682 -0.380148
			 0.218767  0.957653 -0.187193
			 0.071919  0.996737  0.036645
			 0.242449  0.911528 -0.332167
			 0.295442  0.828779 -0.475225
			 0.375450  0.797687 -0.471946
			 0.454328  0.625301 -0.634495
			 0.441747  0.445306 -0.778821
			 0.406568  0.603184 -0.686201
			 0.568404  0.395951 -0.721207
			 0.443434  0.348435 -0.825808
			 0.492173  0.357509 -0.793696
			 0.592145  0.402284 -0.698234
			 0.623418  0.392728 -0.676103
			 0.625323  0.374101 -0.684850
			 0.582540  0.371557 -0.722906
			 0.686464  0.487296 -0.539731
			 0.613197  0.457231 -0.644149
			-0.912154 -0.143011  0.384087
			-0.840531 -0.152271  0.519924
			-0.938548 -0.082807  0.335069
			-0.919355 -0.026027  0.392566
			 0.666109  0.523920 -0.530855
			 0.687190  0.605556 -0.401338
			-0.040659  0.770714 -0.635883
			 0.405731  0.437965 -0.802227
			 0.547255  0.473618 -0.690071
			 0.205388  0.648278 -0.733179
			-0.351689  0.765569 -0.538720
			-0.547987  0.588877 -0.594082
			-0.565841  0.682186 -0.463082
			-0.633964  0.747003 -0.200191
			-0.830413  0.554260  0.056654
			-0.933620  0.317548  0.165885
			-0.936648  0.095485  0.337007
			-0.664339 -0.422945  0.616256
			-0.573332 -0.656421  0.490309
			-0.581898 -0.659650  0.475664
			-0.539351 -0.654287  0.530102
			-0.530615 -0.673714  0.514352
			-0.541838 -0.697476  0.468976
			-0.624515 -0.662543  0.413543
			-0.557133 -0.646368  0.521355
			-0.418617 -0.751551  0.509834
			-0.333079 -0.804228  0.492216
			-0.468931 -0.667309  0.578621
			-0.549125 -0.638697  0.539007
			-0.680416 -0.602323  0.417422
			-0.636755 -0.558125  0.532014
			-0.584257 -0.697077  0.415605
			-0.610290 -0.649590  0.453407
			-0.625000 -0.633593  0.455999
			-0.657192 -0.572386  0.490380
			 0.075242  0.997060  0.014495
			-0.096643  0.963455  0.249830
			-0.230086  0.894987  0.382176
			-0.182924  0.950563  0.250936
			-0.356330  0.740339  0.570024
			-0.344707  0.524251  0.778677
			-0.616728  0.245947  0.747768
			-0.408118  0.401420  0.819940
			-0.587891  0.211075  0.780917
			-0.718612  0.168139  0.674779
			-0.735389 -0.002595  0.677640
			-0.737812 -0.321704  0.593414
			 0.701659  0.607426 -0.372437
			 0.764014  0.537316 -0.357175
			 0.829818  0.390370 -0.398765
			 0.809543  0.475457 -0.344356
			 0.868699  0.402566 -0.288623
			 0.860746  0.448515 -0.240731
			 0.821283  0.488864 -0.294119
			 0.750006  0.468817 -0.466585
			 0.772388  0.498861 -0.393134
			 0.225475  0.906456 -0.357070
			 0.127939  0.973640 -0.188832
			 0.145082  0.987160 -0.066830
			 0.289643  0.927259 -0.237270
			 0.361106  0.814974 -0.453232
			 0.366561  0.718063 -0.591624
			 0.364337  0.502434 -0.784104
			 0.349845  0.397396 -0.848342
			 0.334878  0.675503 -0.656926
			 0.363927  0.518763 -0.773590
			 0.383172  0.604822 -0.698119
			 0.364743  0.312150 -0.877226
			 0.417137  0.354993 -0.836646
			 0.526974  0.412470 -0.743079
			 0.437792  0.365723 -0.821331
			 0.602510  0.443730 -0.663389
			 0.576966  0.426943 -0.696297
			 0.593090  0.436079 -0.676816
			 0.528210  0.407932 -0.744705
			 0.516947  0.492484 -0.700161
			 0.583215  0.552012 -0.595939
			 0.725965  0.542909 -0.422167
			 0.642047  0.590217 -0.489305
			 0.539051  0.519585 -0.662914
			-0.868525 -0.291513  0.400855
			-0.748064 -0.483541  0.454519
			-0.842045 -0.230774  0.487549
			 0.588751  0.635151 -0.499955
			 0.707602  0.606379 -0.362773
			-0.067617  0.730653 -0.679393
			 0.365646  0.579664 -0.728212
			 0.490873  0.643246 -0.587605
			 0.119560  0.618410 -0.776707
			-0.289163  0.729284 -0.620104
			-0.463729  0.775248 -0.428889
			-0.737724  0.658705 -0.147890
			-0.406659  0.693631 -0.594563
			-0.616483  0.684358 -0.389362
			-0.872320  0.477536  0.104966
			-0.807833  0.589156  0.017364
			-0.878756  0.395912 -0.266537
			-0.866295 -0.208341  0.454013
			-0.903468 -0.075934  0.421876
			-0.949273  0.211675  0.232538
			-0.907873 -0.058395  0.415158
			-0.834946 -0.233581  0.498302
			-0.666501 -0.587479  0.458961
			-0.588527 -0.613094  0.527022
			-0.629795 -0.596610  0.497408
			-0.722223 -0.522129  0.453625
			-0.660863 -0.520177  0.540995
			-0.524451 -0.632143  0.570391
			-0.354929 -0.790983  0.498369
			-0.355880 -0.791893  0.496241
			-0.431907 -0.690231  0.580549
			-0.475587 -0.530837  0.701448
			-0.513043 -0.520362  0.682649
			-0.532331 -0.644253  0.549146
			-0.432194 -0.626936  0.648197
			-0.485956 -0.634161  0.601403
			-0.601456 -0.565087  0.564736
			-0.712604 -0.569901  0.409157
			-0.728504 -0.570321  0.379495
			-0.712536 -0.511196  0.480594
			-0.632889 -0.560750  0.533864
			-0.723736 -0.529244  0.442839
			-0.675866 -0.675409  0.295006
			-0.608005 -0.704648  0.365788
			-0.706030 -0.529291  0.470501
			-0.643960 -0.596622  0.478914
			-0.677998 -0.574597  0.458429
			-0.052440  0.987261  0.150220
			 0.041936  0.998787  0.025818
			-0.254841  0.848062  0.464593
			-0.107186  0.961674  0.252378
			-0.300952  0.691337  0.656872
			-0.228271  0.642217  0.731744
			-0.287372  0.471653  0.833643
			-0.325306  0.449872  0.831740
			-0.748184 -0.123515  0.651894
			-0.368275  0.391546  0.843247
			-0.495528  0.186357  0.848365
			-0.445894  0.076354  0.891823
			-0.709340 -0.075364  0.700826
			-0.579498 -0.118754  0.806275
			 0.754666  0.560086 -0.341736
			 0.834368  0.469283 -0.289142
			 0.775925  0.560523 -0.289404
			 0.850926  0.393693 -0.347751
			 0.870794  0.440403 -0.218546
			 0.870366  0.410796 -0.271495
			 0.860427  0.446203 -0.246106
			 0.794369  0.561879 -0.230802
			 0.731969  0.603721 -0.315819
			 0.083931  0.983888  0.157859
			 0.100202  0.976148  0.192599
			 0.167792  0.985739  0.012851
			 0.260640  0.946951 -0.188019
			 0.294712  0.849943 -0.436739
			 0.344758  0.714031 -0.609346
			 0.317852  0.384931 -0.866486
			 0.354728  0.646623 -0.675312
			 0.407792  0.517376 -0.752348
			 0.381260  0.563074 -0.733204
			 0.300709  0.319414 -0.898637
			 0.425396  0.270794 -0.863544
			 0.444819  0.448858 -0.775024
			 0.540837  0.343465 -0.767807
			 0.475536  0.566423 -0.673075
			 0.443028  0.544715 -0.712048
			 0.466246  0.563964 -0.681586
			 0.489704  0.618623 -0.614406
			 0.552913  0.635848 -0.538502
			 0.680716  0.621865 -0.387182
			 0.650365  0.614892 -0.446019
			 0.491890  0.543975 -0.679806
			-0.773479 -0.380826  0.506658
			-0.735756 -0.392039  0.552239
			 0.381525  0.710509 -0.591282
			 0.469919  0.745891 -0.472040
			 0.683795  0.615080 -0.392557
			-0.155941  0.602835 -0.782478
			 0.251465  0.629831 -0.734900
			 0.032391  0.564492 -0.824803
			-0.770739  0.527573 -0.357250
			-0.520314  0.560274 -0.644489
			-0.201349  0.673531 -0.711206
			-0.691068  0.233925 -0.683889
			-0.884156  0.299474  0.358585
			-0.872843  0.434957  0.221263
			-0.697046  0.700267 -0.154119
			-0.805200  0.588893  0.069703
			-0.889860  0.057105  0.452645
			-0.823796 -0.240452  0.513364
			-0.858884 -0.116500  0.498745
			-0.745757 -0.318061  0.585392
			-0.629062 -0.554837  0.544460
			-0.667036 -0.568631  0.481375
			-0.656008 -0.534981  0.532399
			-0.318911 -0.793156  0.518844
			-0.421073 -0.650420  0.632179
			-0.319553 -0.778231  0.540594
			-0.389031 -0.660477  0.642203
			-0.586394 -0.360865  0.725203
			-0.520787 -0.394285  0.757179
			-0.444193 -0.526074  0.725216
			-0.409813 -0.548234  0.729036
			-0.389308 -0.620757  0.680514
			-0.506087 -0.562870  0.653493
			-0.593974 -0.588262  0.548764
			-0.726168 -0.544075  0.420312
			-0.730140 -0.531710  0.429162
			-0.727352 -0.523075  0.444242
			-0.796331 -0.327925  0.508254
			-0.628948 -0.584236  0.512925
			-0.685522 -0.462241  0.562488
			-0.770040 -0.359245  0.527239
			-0.734541 -0.595241  0.325789
			-0.804533 -0.433531  0.405929
			-0.716011 -0.606923  0.344924
			-0.682824 -0.629649  0.370530
			-0.684212 -0.566261  0.459568
			-0.683350 -0.564507  0.462996
			-0.675896 -0.588019  0.444295
			-0.665660 -0.514936  0.540127
			-0.225290  0.813513  0.536135
			-0.062427  0.921989  0.382151
			-0.126508  0.793300  0.595542
			-0.118735  0.770533  0.626243
			-0.198384  0.595306  0.778624
			-0.248077  0.356865  0.900614
			-0.235673  0.373410  0.897231
			-0.318033  0.300286  0.899268
			-0.449989  0.005547  0.893017
			-0.592837 -0.167261  0.787761
			-0.617946 -0.494207  0.611476
			 0.714399  0.602358 -0.356089
			 0.733183  0.587033 -0.343272
			 0.845879  0.450941 -0.284853
			 0.816413  0.519339 -0.252503
			 0.790925  0.550185 -0.267834
			 0.860446  0.447454 -0.243759
			 0.823432  0.537281 -0.182449
			 0.802203  0.553143 -0.224731
			 0.826822  0.536812 -0.167923
			 0.709764  0.613348 -0.346467
			 0.736033  0.548934 -0.396140
			 0.743773  0.581219 -0.330131
			 0.026241  0.883850  0.467033
			-0.044511  0.886931  0.459752
			-0.012467  0.978575  0.205514
			 0.229721  0.970635  0.071391
			 0.280739  0.954026  0.104976
			 0.332811  0.913916 -0.232367
			 0.349454  0.819844 -0.453583
			 0.386628  0.789680 -0.476366
			 0.317581  0.649831 -0.690552
			 0.332006  0.526696 -0.782536
			 0.310156  0.392644 -0.865814
			 0.244353  0.314834 -0.917154
			 0.289343  0.357577 -0.887930
			 0.258170  0.305882 -0.916398
			 0.251545  0.342977 -0.905037
			 0.465429  0.351440 -0.812321
			 0.302878  0.499839 -0.811434
			 0.329055  0.630774 -0.702742
			 0.436525  0.626984 -0.645242
			 0.398689  0.677598 -0.617987
			 0.477661  0.660143 -0.579699
			 0.422662  0.679952 -0.599185
			 0.551517  0.661773 -0.507825
			 0.648986  0.614622 -0.448394
			 0.605658  0.653621 -0.453826
			 0.235563  0.739882 -0.630146
			 0.292415  0.773446 -0.562383
			 0.356541  0.788061 -0.501835
			 0.575135  0.737414 -0.354176
			 0.697198  0.627731 -0.346221
			 0.126634  0.724341 -0.677712
			-0.006962  0.693590 -0.720337
			-0.470947  0.757468 -0.452163
			-0.395036  0.721140 -0.569125
			 0.024465  0.788533 -0.614506
			-0.128226  0.775608 -0.618053
			-0.888927  0.159686  0.429313
			-0.883656  0.246945  0.397705
			-0.833958  0.540566  0.110917
			-0.637415  0.721388 -0.270742
			-0.821973 -0.044702  0.567769
			-0.804116 -0.130393  0.579996
			-0.787894 -0.138320  0.600075
			-0.668791 -0.386699  0.634967
			-0.662318 -0.561401  0.496149
			-0.650034 -0.509957  0.563383
			-0.688591 -0.519032  0.506407
			-0.565759 -0.456336  0.686786
			-0.483491 -0.480383  0.731757
			-0.392283 -0.535093  0.748191
			-0.342938 -0.599059  0.723548
			-0.367024 -0.557100  0.744938
			-0.458354 -0.575680  0.677130
			-0.442339 -0.553713  0.705506
			-0.518847 -0.503947  0.690533
			-0.619786 -0.447548  0.644644
			-0.649912 -0.458998  0.605752
			-0.699123 -0.523055  0.487484
			-0.865812 -0.329267  0.376766
			-0.756187 -0.369913  0.539764
			-0.664605 -0.453059  0.594170
			-0.696993 -0.451337  0.557222
			-0.642838 -0.668160  0.374595
			-0.588475 -0.627681  0.509622
			-0.600896 -0.698832  0.388017
			-0.639527 -0.624247  0.448688
			-0.694028 -0.567799  0.442639
			-0.643332 -0.563529  0.518227
			-0.652553 -0.626221  0.426640
			-0.634554 -0.624520  0.455319
			-0.661491 -0.496935  0.561681
			-0.643019 -0.551672  0.531211
			-0.617436 -0.531664  0.579747
			-0.079273  0.822647  0.562999
			-0.009818  0.814067  0.580687
			-0.181522  0.511638  0.839807
			-0.287926  0.228930  0.929887
			-0.124664  0.253940  0.959152
			-0.267881  0.325504  0.906800
			-0.175568  0.436565  0.882376
			-0.045601  0.428184  0.902540
			-0.148930  0.363427  0.919642
			-0.346160  0.092204  0.933634
			-0.565362 -0.392378  0.725538
			-0.522773 -0.252871  0.814104
			-0.430059 -0.054540  0.901152
			-0.613678 -0.581823  0.533742
			 0.690914  0.676045 -0.256127
			 0.732028  0.602787 -0.317464
			 0.775225  0.540437 -0.327040
			 0.831836  0.497891 -0.245263
			 0.818713  0.523398 -0.236142
			 0.839934  0.461120 -0.286146
			 0.810677  0.525998 -0.257157
			 0.807704  0.540262 -0.236073
			 0.801051  0.552887 -0.229417
			 0.807947  0.568918 -0.153470
			 0.818741  0.568170 -0.082738
			 0.798654  0.581612 -0.154530
			 0.655870  0.673672 -0.340589
			 0.744949  0.635854 -0.201842
			 0.108295  0.986935  0.119297
			 0.170124  0.877087  0.449194
			 0.268783  0.922991  0.275398
			 0.323555  0.946195  0.005325
			 0.400846  0.828399 -0.391251
			 0.385349  0.873070 -0.298756
			 0.401799  0.881421 -0.248305
			 0.380615  0.873038 -0.304855
			 0.467870  0.812292 -0.348250
			 0.398786  0.744490 -0.535448
			 0.290992  0.527633 -0.798077
			 0.294771  0.636190 -0.713002
			 0.270349  0.459594 -0.845982
			 0.219143  0.360978 -0.906461
			 0.192642  0.384239 -0.902912
			 0.272275  0.428984 -0.861301
			 0.188522  0.467744 -0.863525
			 0.208903  0.511838 -0.833296
			 0.294016  0.532701 -0.793589
			 0.243011  0.587477 -0.771891
			 0.395256  0.639665 -0.659244
			 0.229841  0.579875 -0.781613
			 0.276663  0.642232 -0.714840
			 0.435430  0.648122 -0.624771
			 0.454240  0.630875 -0.629017
			 0.464803  0.691458 -0.553031
			 0.598140  0.661029 -0.453067
			 0.571139  0.680831 -0.458551
			 0.567601  0.679289 -0.465183
			 0.589665  0.660342 -0.465020
			 0.149359  0.802287 -0.577951
			 0.106275  0.798441 -0.592620
			 0.193579  0.802630 -0.564191
			 0.512379  0.791509 -0.333139
			 0.242790  0.825894 -0.508873
			 0.352654  0.834250 -0.423866
			 0.634873  0.725380 -0.266007
			-0.450349  0.764852 -0.460638
			-0.580576  0.687235 -0.436623
			-0.698094  0.560289 -0.445804
			-0.652054  0.590789 -0.475178
			-0.332876  0.754403 -0.565747
			-0.193982  0.730340 -0.654962
			-0.056990  0.797281 -0.600912
			-0.891979  0.232863  0.387489
			-0.865837  0.026624  0.499618
			-0.811417  0.543577 -0.214771
			-0.873369  0.394562  0.285566
			-0.937952  0.345242  0.032461
			-0.830299 -0.255436  0.495333
			-0.753806 -0.456564  0.472574
			-0.701543 -0.441091  0.559711
			-0.492475 -0.490665  0.718830
			-0.639237 -0.352810  0.683302
			-0.397045 -0.572119  0.717659
			-0.374423 -0.526240  0.763465
			-0.419775 -0.499689  0.757694
			-0.416050 -0.450377  0.789976
			-0.447004 -0.461887  0.766060
			-0.574642 -0.421625  0.701441
			-0.659381 -0.352155  0.664231
			-0.657744 -0.403891  0.635803
			-0.651648 -0.522802  0.549575
			-0.686564 -0.513043  0.515187
			-0.646698 -0.572941  0.503509
			-0.598965 -0.556769  0.575542
			-0.637746 -0.424660  0.642607
			-0.601659 -0.510190  0.614583
			-0.624032 -0.459752  0.631832
			-0.648069 -0.422767  0.633463
			-0.639528 -0.431766  0.636068
			-0.503559 -0.304136  0.808659
			-0.574302 -0.472319  0.668649
			-0.523079 -0.496550  0.692695
			-0.505072 -0.706481  0.495769
			-0.463245 -0.587855  0.663197
			-0.556580 -0.708479  0.433908
			-0.488641 -0.713392  0.502296
			-0.530132 -0.647211  0.547794
			-0.592537 -0.607214  0.529330
			-0.458236 -0.709343  0.535586
			-0.602916 -0.652066  0.459676
			-0.563367 -0.647891  0.512694
			-0.574105 -0.590127  0.567586
			-0.030268  0.666991  0.744451
			-0.399753 -0.035081  0.915951
			-0.359581  0.025526  0.932765
			-0.057443  0.345006  0.936841
			-0.067026  0.439734  0.895624
			-0.190216  0.460965  0.866792
			-0.203161  0.217484  0.954687
			-0.033532  0.525746  0.849980
			 0.159964  0.648830  0.743930
			 0.077130  0.699932  0.710032
			 0.025042  0.412461  0.910631
			 0.655868  0.723089 -0.216748
			 0.750345  0.634539 -0.185318
			 0.767797  0.582199 -0.267456
			 0.784339  0.578764 -0.223257
			 0.805382  0.557110 -0.202458
			 0.820408  0.542092 -0.181844
			 0.789437  0.592473 -0.160516
			 0.768388  0.615873 -0.174011
			 0.742755  0.653200 -0.147118
			 0.706662  0.705023 -0.059760
			 0.815818  0.577225 -0.035384
			 0.796472  0.601842 -0.058459
			 0.678735  0.702958 -0.212530
			 0.628303  0.687730 -0.363679
			 0.178012  0.814347  0.552404
			 0.362328  0.930181  0.059013
			 0.260440  0.846482  0.464370
			 0.476873  0.873251 -0.100128
			 0.534069  0.817508 -0.215523
			 0.515044  0.776136 -0.363790
			 0.349988  0.659312 -0.665444
			 0.444769  0.822267 -0.355045
			 0.414907  0.722242 -0.553370
			 0.287565  0.584194 -0.758963
			 0.277647  0.491384 -0.825503
			 0.172253  0.495580 -0.851310
			 0.080036  0.518771 -0.851158
			 0.106639  0.529179 -0.841782
			 0.228652  0.400427 -0.887342
			 0.215646  0.539476 -0.813918
			 0.227586  0.443963 -0.866661
			 0.467333  0.596247 -0.652755
			 0.350242  0.651788 -0.672683
			 0.141645  0.545804 -0.825854
			 0.231168  0.482013 -0.845118
			 0.163320  0.469328 -0.867789
			 0.244971  0.654902 -0.714907
			 0.155637  0.568517 -0.807815
			 0.178581  0.579985 -0.794812
			 0.200337  0.628792 -0.751322
			 0.239131  0.672362 -0.700532
			 0.340668  0.700170 -0.627461
			 0.385348  0.706632 -0.593445
			 0.384681  0.756047 -0.529541
			 0.454749  0.680912 -0.574075
			 0.464567  0.664266 -0.585600
			 0.609878  0.686364 -0.396174
			 0.545343  0.648914 -0.530577
			 0.474608  0.649468 -0.594087
			 0.069168  0.782791 -0.618428
			 0.158703  0.801157 -0.577027
			 0.420877  0.836568 -0.350738
			 0.148800  0.850450 -0.504572
			-0.858700  0.422462 -0.290104
			-0.769656  0.458752 -0.444045
			-0.486209  0.680542 -0.548145
			-0.802065  0.390514 -0.451874
			-0.495020  0.592206 -0.635804
			-0.764800  0.552000 -0.332231
			-0.630998  0.595453 -0.497270
			-0.356110  0.660674 -0.660829
			-0.304036  0.628919 -0.715558
			-0.236762  0.717275 -0.655332
			-0.136666  0.776931 -0.614574
			-0.069812  0.788318 -0.611294
			-0.949393  0.207214  0.236040
			-0.916376 -0.044942  0.397789
			-0.991842  0.122000  0.036940
			-0.987597  0.054691  0.147176
			-0.913783 -0.186142  0.361043
			-0.798438 -0.273688  0.536276
			-0.780670 -0.180026  0.598452
			-0.521388 -0.483955  0.702810
			-0.555066 -0.377648  0.741137
			-0.445434 -0.517182  0.730829
			-0.413376 -0.539415  0.733589
			-0.434578 -0.474729  0.765359
			-0.455605 -0.461096  0.761456
			-0.426446 -0.404092  0.809230
			-0.426541 -0.367522  0.826432
			-0.533126 -0.352177  0.769252
			-0.595281 -0.333596  0.730995
			-0.733250 -0.337166  0.590478
			-0.627216 -0.294363  0.721076
			-0.640946 -0.323004  0.696316
			-0.606121 -0.588576  0.534972
			-0.609975 -0.558755  0.561893
			-0.665828 -0.298102  0.683965
			-0.613500 -0.425608  0.665188
			-0.614340 -0.466775  0.636167
			-0.627917 -0.418555  0.656149
			-0.455200 -0.309844  0.834739
			-0.479078 -0.324585  0.815554
			-0.365943 -0.552867  0.748615
			-0.413054 -0.649350  0.638538
			-0.464686 -0.723855  0.510001
			-0.390066 -0.342314  0.854792
			-0.383130 -0.461691  0.800033
			-0.421093 -0.741967  0.521695
			-0.447088 -0.711955  0.541509
			-0.459701 -0.675678  0.576311
			-0.409616 -0.698234  0.587098
			-0.398831 -0.706075  0.585143
			-0.387933 -0.698592  0.601230
			-0.480197 -0.682686  0.550773
			-0.599893 -0.629153  0.494262
			-0.600274 -0.590898  0.538991
			-0.615413 -0.595279  0.516634
			-0.541196 -0.611366  0.577355
			-0.274149  0.008806  0.961647
			-0.334313 -0.033210  0.941877
			-0.013904  0.476036  0.879316
			-0.038467  0.168226  0.984998
			-0.122203 -0.040019  0.991698