<?xml version="1.0"?>
<VTKFile type="PolyData" version="0.1" byte_order="LittleEndian" compressor="vtkZLibDataCompressor">
	<PolyData>
		<Piece NumberOfPoints="19162" NumberOfVerts="0" NumberOfLines="0" NumberOfStrips="0" NumberOfPolys="38216">
		<PointData Normals="Normals">
		<DataArray type="Float32" Name="Normals" NumberOfComponents="3" format="ascii">
			 0.025930  0.999377 -0.023942
			-0.092281  0.939643  0.329478
			 0.438437  0.898709  0.009783
			-0.098667  0.882942 -0.458998
			-0.454197  0.890899 -0.002257
			-0.695486  0.667916  0.264930
			 0.302788  0.888968  0.343592
			-0.169339  0.806292  0.566760
			 0.358600  0.928022 -0.100901
			 0.500070  0.836227  0.225064
			-0.688908  0.670584 -0.275178
			-0.632129  0.448042 -0.632195
			-0.257769  0.668255 -0.697847
			-0.017295  0.885933 -0.463491
			-0.988362  0.147034 -0.039005
			-0.904345  0.297399  0.306128
			-0.713364  0.292186  0.636976
			-0.188315  0.695115  0.693795
			-0.045719  0.984630 -0.168561
			 0.169678  0.983667  0.060078
			 0.297855  0.925925  0.232263
			 0.429939  0.884336  0.181937
			 0.121195  0.877111  0.464745
			 0.604215  0.792169 -0.085975
			 0.308963  0.938348  0.155064
			-0.386688  0.614396 -0.687743
			-0.640467  0.293345 -0.709754
			-0.872360 -0.025341 -0.488208
			-0.443549  0.831117 -0.335423
			-0.886443 -0.213842  0.410476
			-0.851349 -0.521097  0.060520
			-0.820059 -0.504031 -0.271028
			-0.697412  0.018206  0.716440
			-0.708123 -0.544861  0.449098
			-0.466862  0.359319  0.808041
			-0.299589  0.953240  0.039751
			 0.140736  0.958564  0.247686
			 0.421898  0.859099  0.289743
			 0.248405  0.944898  0.213221
			-0.301628  0.744435  0.595682
			-0.027112  0.894408  0.446429
			 0.494223  0.868246  0.043513
			 0.142652  0.953853  0.264226
			 0.455539  0.889923 -0.022831
			 0.111966  0.976254  0.185450
			-0.606841 -0.471653 -0.639756
			-0.793001  0.331143 -0.511365
			-0.826744  0.507841 -0.242057
			-0.626678 -0.740664  0.242263
			-0.376746 -0.922017 -0.089144
			-0.408012 -0.842331 -0.352145
			-0.662746 -0.494486  0.562362
			-0.358317 -0.925867  0.119910
			-0.566082 -0.807327  0.166654
			-0.856539  0.024296  0.515510
			-0.749600 -0.542028  0.379876
			-0.266314  0.952906 -0.145078
			-0.775175  0.562710 -0.287160
			-0.103201  0.989735  0.098867
			 0.083941  0.990472  0.109172
			 0.400310  0.875800  0.269679
			 0.764643  0.503501  0.402254
			 0.937143  0.184284  0.296316
			 0.737251  0.671851  0.071251
			 0.544127  0.827650  0.137552
			-0.580311  0.544256  0.605826
			-0.301521  0.787120  0.538078
			 0.956602  0.284383  0.063555
			 0.967244  0.160731 -0.196482
			 0.796948  0.448104 -0.405064
			-0.136845  0.790026  0.597605
			 0.223566  0.918483  0.326200
			 0.168400  0.961932  0.215240
			 0.819600  0.148365 -0.553393
			 0.646620  0.701950 -0.298577
			 0.451431  0.891627  0.034808
			-0.766991 -0.207628 -0.607138
			-0.441118 -0.795097 -0.416216
			-0.058713 -0.968469 -0.242116
			-0.927207 -0.273326 -0.256085
			-0.810636 -0.440149 -0.386185
			-0.235651 -0.966716 -0.099643
			-0.352991 -0.930633 -0.096538
			-0.476223 -0.878301 -0.042420
			-0.754788 -0.639586  0.145691
			-0.838819 -0.098678  0.535393
			-0.804004 -0.570378  0.168065
			-0.201367  0.961577 -0.186606
			-0.572897  0.552994 -0.604969
			-0.850397 -0.312144 -0.423545
			-0.124820  0.970098 -0.208157
			 0.183365  0.982282 -0.038711
			 0.516775  0.829622  0.211356
			 0.826962  0.393693  0.401421
			 0.898214 -0.066907  0.434437
			 0.993592  0.053591  0.099515
			 0.810574 -0.468639  0.351209
			 0.511568 -0.858898  0.024334
			 0.957402  0.285572  0.042772
			 0.942787 -0.166705 -0.288725
			 0.982915  0.112031 -0.146036
			-0.609068  0.502125  0.613926
			 0.759651 -0.613998 -0.214331
			 0.742981 -0.442670 -0.502019
			 0.795807 -0.191605 -0.574437
			-0.631220  0.090601  0.770294
			 0.194347  0.834572  0.515480
			-0.218043  0.580131  0.784797
			 0.222051  0.951081  0.214801
			 0.199761  0.950130  0.239474
			 0.717261  0.475917 -0.508959
			 0.727534 -0.465777 -0.503732
			 0.477674 -0.634324 -0.607832
			 0.611878 -0.130422 -0.780125
			 0.672692  0.739900  0.005759
			 0.531668  0.584227 -0.613195
			 0.714489  0.221802 -0.663558
			 0.306133  0.921320  0.239692
			 0.354712  0.929909 -0.097207
			 0.429220  0.653077 -0.623908
			-0.510032 -0.821994 -0.253365
			-0.214909 -0.913508 -0.345422
			-0.132966 -0.973405 -0.186553
			-0.039698 -0.970303 -0.238611
			 0.018270 -0.975217 -0.220494
			-0.074463 -0.981502 -0.176380
			-0.313206 -0.886941 -0.339466
			-0.237377 -0.926619 -0.291599
			-0.666233 -0.729272  0.155873
			-0.377627 -0.919762 -0.106934
			-0.604411 -0.749332  0.270534
			-0.106336  0.816537 -0.567415
			-0.768226 -0.274308 -0.578432
			-0.698682 -0.436235 -0.567048
			-0.393086  0.484997 -0.781192
			-0.550020 -0.773117 -0.315862
			 0.136096  0.907110 -0.398282
			 0.474074  0.855231 -0.209364
			 0.747347  0.662443  0.051404
			 0.960768  0.004009  0.277324
			 0.777137 -0.428022  0.461362
			 0.347278 -0.862135  0.368946
			-0.348780 -0.925810 -0.145698
			-0.359788 -0.930107 -0.073851
			 0.370155 -0.899115 -0.233616
			 0.265568 -0.897710 -0.351555
			 0.432627 -0.694259 -0.575185
			-0.537622  0.185988  0.822418
			-0.646997 -0.496140  0.578998
			 0.058630  0.864705  0.498846
			-0.583529  0.053745  0.810312
			-0.213864  0.583789  0.783233
			-0.517972  0.089161  0.850738
			 0.205330  0.906672  0.368490
			 0.324922 -0.813397 -0.482505
			 0.152641 -0.853269 -0.498631
			 0.245160 -0.652894 -0.716677
			 0.482173  0.211093 -0.850264
			 0.270700 -0.364773 -0.890877
			 0.184613  0.842122  0.506703
			 0.221392  0.835426  0.503039
			 0.215509  0.933877  0.285358
			 0.280990  0.921330 -0.268692
			 0.195763  0.196954 -0.960670
			 0.173223 -0.940560 -0.292132
			 0.181405 -0.958808 -0.218586
			-0.138579 -0.889252 -0.435920
			-0.408894 -0.855077 -0.318825
			-0.246493 -0.934764 -0.255845
			-0.281114 -0.950854 -0.129814
			 0.260847  0.703336 -0.661270
			-0.543031  0.061860 -0.837431
			-0.571907 -0.662057 -0.484358
			-0.147075  0.309775 -0.939366
			 0.789497  0.610905 -0.059078
			 0.785711  0.298878 -0.541600
			 0.860453 -0.509328 -0.014308
			 0.683821 -0.587982  0.432049
			 0.224355 -0.970006  0.093561
			-0.196017 -0.822267 -0.534280
			-0.565839 -0.712853  0.414326
			-0.598653 -0.148071  0.787203
			-0.553511 -0.594229  0.583539
			 0.135992  0.689324  0.711575
			-0.028187  0.397548  0.917148
			-0.326981 -0.258949  0.908861
			-0.183827 -0.950630 -0.250021
			 0.023349 -0.860929 -0.508190
			 0.174005 -0.564886 -0.806614
			-0.106380 -0.703270 -0.702919
			 0.173606  0.611127  0.772260
			 0.292741  0.590172  0.752330
			 0.102465  0.246117  0.963809
			 0.148151  0.936168 -0.318813
			 0.215644  0.961066  0.172769
			 0.274353  0.887903  0.369268
			-0.107377 -0.344851 -0.932495
			 0.076647  0.414354 -0.906883
			-0.324895 -0.945729 -0.006389
			-0.321571 -0.893420 -0.313675
			-0.229049 -0.950803 -0.208590
			 0.166253  0.271384 -0.948004
			-0.326707 -0.311724 -0.892239
			 0.000247 -0.224810 -0.974403
			 0.409223 -0.112723 -0.905444
			 0.731675 -0.361431 -0.577944
			 0.351572 -0.695815 -0.626290
			 0.543702 -0.827169 -0.142054
			 0.121203 -0.925654 -0.358434
			-0.353836 -0.932070  0.077748
			-0.299896 -0.856353  0.420383
			-0.091451 -0.195249  0.976481
			 0.049933  0.374183  0.926010
			-0.322362 -0.881708 -0.344491
			-0.294586 -0.803448 -0.517388
			 0.113164 -0.055825  0.992007
			-0.074606 -0.218519  0.972977
			-0.097545 -0.594296  0.798309
			 0.130736 -0.385083  0.913575
			-0.120148 -0.235201  0.964492
			 0.271235  0.879079  0.391984
			 0.098982 -0.436158  0.894410
			 0.146402  0.758277  0.635281
			-0.235057 -0.937789  0.255538
			 0.146266  0.879197 -0.453453
			 0.250022  0.903594 -0.347860
			 0.224324  0.974423  0.013402
			 0.191778  0.931574  0.308854
			-0.139358 -0.238932 -0.960984
			-0.041519  0.349343 -0.936075
			-0.256777 -0.925248 -0.279253
			-0.246687 -0.948259 -0.199877
			-0.337105 -0.916046  0.217302
			-0.177494 -0.548762  0.816919
			-0.235528 -0.937192 -0.257287
			-0.337331 -0.908945 -0.245004
			-0.291231 -0.715551 -0.634958
			-0.286580 -0.899502 -0.329800
			-0.101515 -0.858550  0.502580
			-0.325327 -0.848077  0.418243
			-0.203474 -0.975507  0.083578
			-0.120897 -0.977030  0.175486
			 0.136619  0.885618  0.443864
			-0.810858  0.489347  0.321011
			-0.158156 -0.538674  0.827536
			 0.168022  0.015311  0.985664
			 0.206253  0.732776  0.648459
			 0.099413  0.167046  0.980924
			-0.232782 -0.964451 -0.125088
			-0.310949 -0.946833 -0.082575
			 0.090416  0.516359 -0.851586
			 0.087944  0.418737 -0.903839
			 0.047267  0.639576 -0.767273
			 0.172166  0.942720 -0.285722
			 0.121945  0.992364  0.018513
			 0.134160  0.905126  0.403420
			-0.104162  0.180691 -0.978009
			-0.279094 -0.625443 -0.728648
			-0.267701 -0.954318  0.132713
			-0.309214 -0.907259 -0.285076
			-0.307673 -0.947221 -0.090057
			-0.112106 -0.758588  0.641854
			-0.094962 -0.417988  0.903475
			 0.079766  0.939233  0.333884
			 0.320171 -0.355589  0.878093
			 0.107153  0.887518  0.448141
			 0.129630  0.022858  0.991299
			 0.256798  0.579089  0.773764
			 0.145890  0.158763  0.976479
			 0.279834  0.044331  0.959024
			-0.102958 -0.805559  0.583502
			-0.267071 -0.955732 -0.123489
			-0.350843 -0.882914 -0.312045
			 0.120459  0.827406 -0.548534
			-0.049126  0.846527 -0.530075
			 0.020964  0.998414  0.052242
			-0.315558  0.186988 -0.930300
			-0.409919 -0.619679 -0.669301
			-0.339758 -0.921580 -0.187762
			-0.041555 -0.979854  0.195342
			 0.029313 -0.870303  0.491643
			 0.048765  0.994812  0.089283
			 0.076317  0.987038  0.141182
			 0.191491  0.858633  0.475480
			 0.194274  0.748356  0.634209
			 0.127418  0.757558  0.640211
			-0.084660 -0.745065  0.661598
			 0.174595 -0.376754  0.909710
			 0.205995  0.433000  0.877540
			 0.131523 -0.269057  0.954102
			 0.062089 -0.728501  0.682226
			-0.226574 -0.973696  0.024088
			-0.141836 -0.972665  0.183861
			-0.285816 -0.958144  0.016403
			-0.082060  0.921830 -0.378808
			-0.265294  0.597432 -0.756765
			-0.330631  0.239658 -0.912824
			-0.424718 -0.283271 -0.859868
			-0.379611 -0.763240 -0.522838
			-0.437899 -0.817720 -0.373601
			-0.338225 -0.931811 -0.131653
			 0.215925  0.946986 -0.237896
			 0.165572  0.959085 -0.229654
			 0.891860  0.200577  0.405408
			 0.434503  0.816804 -0.379524
			 0.543046  0.570110  0.616503
			 0.526710  0.808534  0.262392
			 0.311030  0.766025  0.562554
			-0.208223 -0.905018  0.370925
			 0.135706 -0.381942  0.914169
			 0.304382  0.546846  0.779943
			 0.219123 -0.161018  0.962319
			-0.103134 -0.795071  0.597683
			-0.379711 -0.924920  0.018501
			-0.277246  0.507231 -0.815997
			 0.194383  0.902536 -0.384245
			-0.015536  0.738342 -0.674248
			-0.404692  0.126390 -0.905677
			-0.156792 -0.054450 -0.986130
			-0.114457 -0.545769 -0.830082
			-0.311112 -0.849716 -0.425667
			 0.363728  0.888550 -0.279610
			 0.470383  0.260140 -0.843248
			 0.782805 -0.612807  0.108096
			 0.664805 -0.719628 -0.200424
			 0.824549 -0.014250 -0.565612
			 0.396242  0.885103 -0.244101
			 0.105766  0.989327  0.100229
			-0.275534 -0.941690  0.193135
			-0.049408 -0.874926  0.481729
			 0.094074 -0.773228  0.627111
			 0.506472  0.831042  0.229901
			 0.451141 -0.089932  0.887910
			 0.631364  0.258034  0.731299
			 0.293497 -0.511447  0.807639
			-0.131452 -0.982867 -0.129199
			-0.102169 -0.993985  0.039432
			-0.028182  0.320406 -0.946861
			 0.527973 -0.478338 -0.701739
			 0.311711 -0.524049 -0.792597
			-0.121872 -0.778941 -0.615141
			 0.798422 -0.519821 -0.303823
			 0.749387 -0.481826 -0.454161
			 0.535989  0.299636 -0.789262
			 0.942912 -0.048160 -0.329541
			 0.228415  0.224710 -0.947276
			 0.511849  0.550868 -0.659208
			 0.316222  0.889866  0.328849
			 0.689495  0.696518 -0.198642
			-0.158034  0.985161 -0.066952
			-0.146295  0.959785 -0.239604
			-0.116130 -0.983169  0.141041
			 0.193849 -0.739565  0.644567
			 0.263358 -0.932791  0.246058
			 0.403790  0.130055 -0.905560
			 0.268239  0.798856 -0.538401
			 0.725498  0.669001  0.161526
			 0.617279  0.454783  0.641981
			-0.003412 -0.744745 -0.667341
			 0.568387 -0.558341 -0.604311
			-0.576900  0.402171 -0.710946
			-0.119232 -0.940044 -0.319534
			-0.240896 -0.960643  0.138324
			-0.057287 -0.829268 -0.555907
			 0.482390 -0.873808  0.061312
			 0.767098 -0.090376 -0.635132
			 0.222693 -0.123075 -0.967089
			 0.257710 -0.537921 -0.802638
			 0.874467  0.458555 -0.158226
			 0.514845  0.838750  0.177294
			 0.936150  0.349363  0.039612
			 0.716206  0.257953 -0.648467
			 0.685408 -0.631061 -0.363288
			 0.596213 -0.768385 -0.232625
			 0.047906  0.765650 -0.641471
			 0.289897  0.895761  0.337003
			 0.443446 -0.131705 -0.886572
			-0.739644 -0.672971  0.006052
			-0.113649 -0.993512  0.004267
			-0.436468 -0.843558 -0.312899
			-0.853062 -0.409862  0.322951
			-0.319352 -0.336788  0.885770
			 0.461162 -0.404878 -0.789559
			 0.722294 -0.560678 -0.404886
			-0.383730 -0.192987 -0.903054
			 0.336264 -0.827088 -0.450392
			-0.050377 -0.165804 -0.984871
			-0.189398  0.454019 -0.870629
			-0.331831  0.926111  0.179462
			 0.991121  0.049871 -0.123257
			-0.791252 -0.103579 -0.602654
			 0.841117  0.414233 -0.347754
			 0.127037  0.973894 -0.188128
			 0.241805  0.575784  0.781027
			 0.243883 -0.114251  0.963051
			 0.393299 -0.669973 -0.629645
			 0.733559 -0.608465 -0.302756
			 0.453342  0.005942 -0.891317
			-0.065683  0.944804 -0.320986
			-0.353419  0.840051 -0.411593
			-0.750491 -0.413636 -0.515430
			-0.428592 -0.870915 -0.240448
			 0.583418 -0.008584  0.812126
			-0.211088 -0.977246 -0.020807
			 0.540506 -0.252024 -0.802706
			 0.408569  0.550222 -0.728235
			 0.039888 -0.280398 -0.959055
			-0.334343  0.710621 -0.619057
			 0.384037 -0.209593 -0.899214
			-0.016877 -0.141897 -0.989738
			-0.824421  0.360361 -0.436428
			-0.865237  0.496819  0.067356
			-0.087776 -0.664005  0.742558
			-0.953487  0.157078  0.257273
			-0.611083 -0.720182  0.328504
			 0.344249  0.704003 -0.621186
			 0.880558  0.341817 -0.328297
			-0.178489  0.086186 -0.980160
			-0.443899  0.511360 -0.735843
			 0.905781 -0.247012 -0.344304
			 0.554398 -0.065656 -0.829658
			 0.318295 -0.071732 -0.945274
			-0.130213  0.970908 -0.200953
			 0.226216  0.657958  0.718274
			-0.646893  0.554918  0.523063
			-0.994037  0.007186 -0.108806
			-0.815572 -0.540074 -0.207755
			-0.951870  0.289541 -0.100545
			 0.139241  0.578989 -0.803358
			 0.589656  0.023464  0.807314
			 0.763296  0.580469 -0.283611
			-0.072746  0.955234 -0.286767
			-0.495613  0.238759 -0.835082
			 0.425933  0.699982 -0.573242
			 0.084863  0.747357 -0.658981
			-0.636430  0.698656 -0.326857
			-0.926571  0.252164 -0.279068
			 0.120838 -0.859472  0.496695
			-0.942710 -0.214626  0.255409
			-0.681209 -0.721870  0.121889
			-0.258032 -0.939830 -0.223918
			 0.319436  0.920044 -0.226892
			 0.754905  0.623420 -0.203633
			-0.550499  0.100486  0.828766
			 0.251038  0.687819  0.681091
			 0.572274  0.503096  0.647609
			-0.973366 -0.223004 -0.053172
			-0.918542 -0.259695 -0.298058
			-0.818396  0.015413 -0.574448
			 0.684399  0.285965  0.670688
			 0.479256 -0.327889  0.814127
			-0.229074  0.835979 -0.498662
			-0.530263  0.425093 -0.733565
			-0.243746  0.892142 -0.380357
			-0.348762  0.640485 -0.684211
			-0.374067 -0.152112 -0.914842
			 0.176194 -0.872200  0.456315
			-0.118173 -0.981552  0.150299
			-0.026300 -0.011108 -0.999592
			-0.233955 -0.181362 -0.955182
			-0.398630 -0.403846 -0.823409
			-0.176537 -0.942568 -0.283549
			-0.661651  0.166748  0.731035
			-0.061273  0.938667  0.339338
			 0.435396  0.687204  0.581534
			-0.621163  0.758793  0.195933
			 0.643788  0.448216  0.620193
			-0.936579  0.263193 -0.231409
			-0.739336 -0.505433 -0.444882
			-0.707926 -0.362750 -0.606014
			-0.624436  0.047224 -0.779647
			 0.715817  0.359862  0.598419
			 0.710350  0.140704  0.689641
			 0.656208 -0.224131  0.720525
			 0.389764 -0.681775  0.619085
			-0.126616  0.757674 -0.640233
			-0.234348  0.434849 -0.869476
			-0.432565  0.515588 -0.739633
			-0.601351  0.084224 -0.794533
			 0.094862 -0.936560  0.337426
			-0.395101  0.109545 -0.912083
			-0.377834 -0.426114 -0.821990
			-0.236376 -0.948161 -0.212409
			 0.289068  0.935609  0.202673
			 0.020647  0.998871 -0.042776
			-0.740834  0.637854 -0.210493
			-0.589893  0.807461  0.005757
			 0.583072  0.761468  0.283184
			 0.600268  0.578899  0.551864
			 0.779806  0.446282  0.439016
			-0.904180 -0.103987 -0.414301
			-0.633608 -0.596270 -0.492954
			-0.579502 -0.570938 -0.581557
			-0.615807 -0.123014 -0.778235
			 0.897819  0.228305  0.376560
			 0.784878 -0.002546  0.619645
			 0.718660 -0.176830  0.672502
			 0.433914 -0.730747  0.526998
			-0.419407  0.217946 -0.881248
			-0.557776 -0.245492 -0.792855
			-0.282993 -0.783703 -0.552923
			 0.404423  0.906227  0.123264
			-0.303543  0.907543 -0.290218
			-0.579215  0.772946 -0.258968
			-0.999462  0.000897 -0.032797
			-0.912268 -0.350431 -0.212049
			 0.678873  0.706241  0.200884
			 0.631379  0.719336  0.289683
			 0.741924  0.553031  0.379085
			 0.763734  0.493426  0.416223
			 0.837851  0.502062  0.214335
			 0.998838 -0.005878  0.047828
			 0.989299 -0.145770 -0.006254
			-0.615166 -0.756139 -0.223215
			-0.524887 -0.732259 -0.433924
			-0.608831 -0.664332 -0.433575
			-0.516797 -0.561792 -0.645995
			-0.501854 -0.499954 -0.705825
			-0.320051 -0.222476 -0.920908
			 0.830305 -0.039328 -0.555920
			 0.832404  0.418570 -0.363185
			 0.930392 -0.287210  0.227776
			 0.370370 -0.927872 -0.043365
			-0.450194 -0.430030 -0.782559
			-0.424309  0.871192 -0.246952
			-0.671631 -0.232074 -0.703600
			 0.137275 -0.428651 -0.892980
			 0.598741  0.766979  0.230766
			 0.096962  0.976541 -0.192264
			-0.663060  0.733006 -0.151833
			-0.237253  0.862800 -0.446417
			-0.525500  0.676720 -0.515654
			-0.890507  0.277326 -0.360677
			-0.737744 -0.674969 -0.012252
			-0.710303 -0.692173 -0.127932
			-0.678180 -0.725406  0.117723
			 0.511661  0.858812  0.025414
			 0.889888  0.420940  0.175810
			 0.946993  0.229457  0.224840
			 0.970764 -0.237158  0.037066
			 0.578089 -0.714204 -0.394621
			 0.350077 -0.605816 -0.714446
			-0.364448 -0.921867  0.131680
			-0.492776 -0.861500 -0.122433
			-0.422338 -0.904804  0.054411
			-0.482241 -0.836910 -0.258892
			-0.416276 -0.709107 -0.569106
			 0.696398 -0.064716 -0.714732
			 0.002317  0.968595  0.248634
			-0.584646  0.808674 -0.065076
			-0.921870  0.109572 -0.371684
			-0.762092  0.177325  0.622713
			-0.684481 -0.253701  0.683463
			-0.404965 -0.851564  0.332929
			 0.658988  0.732003  0.172935
			 0.837633  0.498821  0.222597
			 0.940496  0.333025  0.067542
			 0.918515  0.359053  0.165565
			 0.888227  0.133569  0.439559
			 0.764617 -0.352759  0.539372
			 0.176716 -0.878723 -0.443416
			 0.321638 -0.910523  0.259801
			-0.254756 -0.749961  0.610457
			-0.403243 -0.844816  0.351683
			 0.146559  0.869362  0.471944
			-0.302934  0.882163  0.360583
			 0.527173  0.793120  0.305039
			-0.170417  0.900501  0.400070
			-0.446823  0.827692  0.339523
			-0.716422  0.654710  0.241029
			-0.674599  0.408889  0.614594
			-0.332706  0.114579  0.936044
			-0.558853 -0.337869  0.757317
			-0.310638 -0.061938  0.948508
			 0.593656  0.764572  0.251002
			 0.869403  0.425676  0.250873
			 0.575260  0.705004  0.414783
			 0.879926  0.455500  0.135089
			 0.817361  0.510807  0.266454
			 0.807267  0.387866  0.444838
			 0.854884  0.495086  0.155123
			 0.117094 -0.483080  0.867711
			 0.094632 -0.302865  0.948324
			 0.119061  0.298461  0.946966
			 0.278032 -0.656880  0.700861
			-0.324351 -0.773031  0.545178
			-0.276185 -0.414160  0.867291
			-0.195553 -0.465426  0.863213
			 0.309922  0.824311  0.473773
			-0.146303  0.900812  0.408819
			-0.640357  0.677106  0.362589
			-0.692921  0.696267  0.187276
			-0.853828  0.475684  0.211429
			-0.913365  0.399716  0.077405
			-0.879068  0.268632  0.393797
			-0.783300  0.191958  0.591264
			-0.358446  0.114038  0.926559
			-0.224611  0.018109  0.974280
			-0.026893 -0.172393  0.984661
			 0.004942  0.988869  0.148709
			 0.433572  0.886135 -0.163644
			 0.798605  0.600283 -0.043474
			 0.745114  0.662350 -0.078086
			 0.771677  0.635308  0.029974
			 0.841172  0.539277  0.040122
			 0.842679  0.509795  0.173209
			 0.759779  0.634979  0.139775
			 0.760181  0.603553  0.240518
			 0.717809  0.632529  0.290960
			 0.034861 -0.043161  0.998460
			 0.636610  0.476853  0.606084
			-0.190282 -0.552613  0.811426
			-0.540813  0.185223  0.820496
			-0.639920  0.636128  0.431095
			-0.262959  0.162973  0.950943
			 0.086271 -0.485461  0.869991
			-0.525487  0.800811  0.287340
			-0.712279  0.632164  0.305004
			-0.755314  0.295432  0.584996
			-0.841898  0.220932  0.492338
			-0.971387  0.208241  0.114203
			-0.966869  0.101631  0.234169
			-0.789144  0.289301  0.541809
			-0.768186  0.117808  0.629294
			-0.275171  0.113594  0.954661
			 0.160415  0.002771  0.987046
			 0.283909 -0.247379  0.926390
			-0.199057  0.979473 -0.031769
			-0.038209  0.943244 -0.329896
			 0.499594  0.831329 -0.243512
			 0.625345  0.772018 -0.113721
			 0.579662  0.812310 -0.064378
			 0.695459  0.718352 -0.017553
			 0.899708  0.412530  0.142633
			 0.866431  0.483980  0.122721
			 0.772531  0.586642  0.242995
			 0.765639  0.619788  0.172220
			 0.706352  0.707796 -0.009564
			 0.611544  0.708046  0.353106
			 0.693081  0.544743  0.472116
			-0.195064 -0.107111  0.974924
			-0.088227  0.200766  0.975658
			 0.832341  0.304299  0.463261
			 0.670506  0.283008  0.685804
			-0.054654 -0.535959  0.842473
			 0.147152 -0.215863  0.965272
			 0.117238  0.419146  0.900318
			-0.212207  0.658025  0.722475
			 0.043035 -0.074650  0.996281
			 0.134580 -0.375964  0.916810
			 0.058239 -0.079032  0.995169
			-0.518178  0.854341  0.039919
			-0.607592  0.772526 -0.184489
			-0.874909  0.478698  0.073369
			-0.756366  0.418986  0.502356
			-0.856826  0.183393  0.481888
			-0.934811 -0.069597  0.348261
			-0.967515 -0.246915 -0.054284
			-0.989679 -0.116930 -0.082838
			-0.920723 -0.388257  0.039053
			-0.915807 -0.285394  0.282572
			-0.890220  0.300748  0.342140
			-0.511467  0.178133  0.840637
			 0.206107  0.458516  0.864455
			 0.431436  0.220015  0.874903
			 0.179752  0.208795  0.961298
			-0.407112  0.786789 -0.463922
			-0.254033  0.913154 -0.318775
			 0.211598  0.949409 -0.232055
			 0.443141  0.889229 -0.113572
			 0.632496  0.773935 -0.031182
			 0.826756  0.547903 -0.127582
			 0.933010  0.357991 -0.036535
			 0.940664  0.314732  0.126868
			 0.995333 -0.050959  0.081949
			 0.862354  0.506055  0.015925
			 0.810708  0.095502  0.577608
			 0.774780  0.618974 -0.128787
			 0.682216  0.646428 -0.341631
			 0.761235  0.624979 -0.172980
			 0.566388  0.772696  0.286609
			 0.508645  0.710866  0.485747
			 0.629554 -0.058144  0.774778
			 0.660950  0.354801  0.661257
			 0.713555  0.386253  0.584507
			 0.360423  0.533534  0.765139
			 0.385364  0.208571  0.898884
			-0.020148  0.147312  0.988885
			-0.100155  0.126234  0.986932
			-0.400795 -0.563111  0.722683
			 0.356682 -0.057721  0.932441
			 0.752804 -0.007127  0.658206
			 0.006444 -0.500624  0.865641
			-0.278644 -0.853742  0.439866
			-0.161616 -0.613044  0.773341
			-0.077197 -0.118541  0.989944
			-0.578133  0.757909 -0.302217
			-0.824751  0.540574 -0.166028
			-0.977238  0.183697 -0.106117
			-0.997975 -0.062297  0.012871
			-0.925827 -0.369232 -0.080702
			-0.862766 -0.488537  0.130252
			-0.885188 -0.438997 -0.154024
			-0.997304 -0.008031  0.072936
			-0.831395 -0.552343 -0.060821
			-0.768820 -0.639155 -0.019926
			-0.265408  0.702421  0.660427
			-0.398362  0.850743  0.342847
			 0.581208  0.600127  0.549586
			 0.703730  0.315582  0.636532
			-0.181904  0.980232  0.077815
			-0.468929  0.877653 -0.099147
			 0.222154  0.974536 -0.030442
			 0.407202  0.913081  0.021686
			 0.604157  0.794126  0.066015
			 0.733443  0.678079 -0.047651
			 0.823168  0.522635 -0.221918
			 0.838897  0.489359 -0.238285
			 0.722819  0.688694 -0.056862
			 0.632273 -0.412268  0.655946
			 0.138813 -0.741395  0.656555
			 0.516766 -0.349884  0.781367
			 0.792666  0.542635 -0.277898
			 0.722024  0.608180 -0.329846
			 0.768084  0.638939 -0.042487
			 0.676284  0.735397  0.042795
			 0.533626  0.840294  0.095653
			 0.326826  0.908921  0.258935
			 0.406962  0.768483  0.493777
			 0.128472 -0.762518  0.634083
			 0.052533 -0.666147  0.743968
			-0.171670 -0.692380  0.700814
			 0.446218 -0.076993  0.891606
			 0.091897  0.734574  0.672277
			 0.182756  0.322309  0.928826
			 0.208499 -0.090874  0.973792
			 0.290632 -0.173539  0.940966
			-0.109132 -0.400760  0.909660
			-0.153185 -0.571217  0.806378
			-0.179894 -0.886168  0.427018
			-0.381225 -0.923040  0.051621
			 0.201756 -0.778226  0.594692
			-0.399184 -0.882066  0.250224
			 0.114223 -0.530479  0.839967
			-0.481513 -0.876089 -0.024771
			-0.329485 -0.943608 -0.032295
			-0.360078 -0.889795  0.280371
			-0.662154  0.736900 -0.136127
			-0.762653  0.646807  0.000963
			-0.989095  0.133823  0.061507
			-0.988207 -0.041764 -0.147316
			-0.861049 -0.470962 -0.191805
			-0.685133 -0.715987 -0.134000
			-0.669027 -0.716482 -0.197626
			-0.746777 -0.649606 -0.142604
			-0.250925  0.914608  0.317063
			-0.624146 -0.773588 -0.109560
			-0.683889 -0.712462 -0.157142
			 0.336935  0.696111  0.633959
			 0.304136 -0.049691  0.951332
			-0.053207  0.972225  0.227921
			-0.519885  0.847063  0.110474
			-0.591165  0.800322  0.100040
			 0.439203  0.893547  0.093132
			 0.777617  0.624458 -0.073237
			 0.629993  0.775495 -0.041438
			 0.670729  0.721172  0.173304
			 0.838648  0.446613 -0.311778
			-0.260533 -0.865509  0.427804
			 0.747957  0.608261 -0.265669
			 0.840002  0.440110 -0.317333
			 0.768598  0.535874 -0.349423
			 0.784961  0.507367 -0.355548
			 0.635566  0.718626 -0.282192
			 0.603846  0.431192 -0.670406
			 0.733374  0.679396 -0.024157
			 0.514760  0.843727 -0.152140
			 0.633565  0.772039 -0.050511
			 0.519949  0.849141  0.092802
			 0.357875  0.931796  0.060672
			 0.208041  0.968076  0.139816
			 0.008867  0.944669  0.327905
			-0.458293 -0.850578  0.257845
			-0.604427 -0.783873  0.142166
			-0.192968 -0.669754  0.717072
			 0.091997  0.793404  0.601703
			 0.198163  0.403108  0.893440
			 0.134380 -0.179014  0.974626
			 0.059325 -0.414726  0.908010
			 0.158103 -0.352301  0.922436
			-0.415753 -0.900806 -0.125293
			-0.377994 -0.911597 -0.161590
			-0.528463 -0.846085 -0.069762
			 0.245792  0.086058  0.965495
			-0.375424 -0.914654 -0.149883
			-0.826254  0.535192  0.175708
			-0.970435  0.104520  0.217560
			-0.962563 -0.264454 -0.059473
			-0.959516 -0.188945  0.208876
			-0.901900 -0.410318  0.134963
			-0.857885 -0.511801 -0.045739
			-0.646578 -0.757827 -0.087377
			-0.552425 -0.812911 -0.184396
			-0.346969  0.930029 -0.121074
			 0.484765  0.870111  0.088934
			 0.534884  0.829068  0.162930
			-0.647752  0.704078 -0.291020
			-0.766554  0.642157  0.005371
			 0.783695  0.585984 -0.206019
			 0.047985  0.981481 -0.185454
			 0.083486  0.957153 -0.277289
			 0.623292  0.707780 -0.332496
			 0.810505  0.525299 -0.259117
			 0.895893  0.398550 -0.196301
			 0.891409  0.388147 -0.233946
			 0.849881  0.481994 -0.213033
			 0.870787  0.461655 -0.169127
			 0.798259  0.388565 -0.460218
			 0.792570  0.556847 -0.248503
			 0.738278 -0.371572 -0.562920
			 0.705621  0.497753 -0.504322
			 0.669967  0.110033 -0.734192
			 0.510558  0.674144 -0.533723
			 0.628134  0.200992 -0.751698
			 0.428138  0.115077 -0.896357
			 0.558154  0.092337 -0.824584
			 0.617288  0.786525 -0.018241
			 0.471883  0.861421 -0.187833
			 0.474684  0.879560 -0.032377
			 0.227974  0.914570  0.334051
			 0.659908  0.729570  0.179580
			-0.681339 -0.731485 -0.026573
			-0.752072 -0.659031 -0.008059
			-0.694056 -0.707960  0.130687
			-0.539143 -0.719567  0.437663
			 0.409681  0.620816  0.668393
			 0.731810  0.460933  0.501991
			 0.038255  0.075097  0.996442
			 0.563617  0.372788  0.737133
			 0.248599 -0.565879  0.786116
			-0.286794 -0.070514  0.955394
			 0.400190 -0.158217  0.902671
			-0.312722 -0.142069  0.939160
			-0.243259 -0.504228  0.828601
			-0.277031 -0.278594  0.919586
			-0.379590 -0.902538 -0.203312
			-0.524090 -0.849475 -0.061009
			-0.633099 -0.773861  0.018042
			-0.416173 -0.883641 -0.214427
			-0.674818 -0.737550 -0.025307
			-0.547406 -0.734563 -0.400954
			-0.936484  0.349167  0.032866
			-0.976516 -0.025039  0.213987
			-0.914161 -0.305830  0.266040
			-0.765712 -0.601938  0.226617
			-0.702122 -0.708470  0.071379
			-0.439482 -0.897777  0.029192
			-0.481819 -0.870694 -0.098706
			-0.579787 -0.774658 -0.252493
			-0.378173  0.848112 -0.371067
			-0.603232  0.679875 -0.416991
			-0.808341  0.421164 -0.411346
			-0.672476  0.581696 -0.457608
			-0.520449  0.777235 -0.353607
			 0.231456  0.759236 -0.608267
			-0.373889  0.821378 -0.430750
			 0.720304  0.663208 -0.203265
			-0.079527  0.865029 -0.495379
			 0.940453  0.296234 -0.166713
			 0.905803  0.403280 -0.129947
			 0.622077  0.155140 -0.767432