<?xml version="1.0"?>
<VTKFile type="PolyData" version="0.1" byte_order="LittleEndian" compressor="vtkZLibDataCompressor">
	<PolyData>
		<Piece NumberOfPoints="6628" NumberOfVerts="0" NumberOfLines="0" NumberOfStrips="0" NumberOfPolys="13250">
		<PointData Normals="Normals">
		<DataArray type="Float32" Name="Normals" NumberOfComponents="3" format="ascii">
			-0.200998  0.979164  0.028956
			-0.183310  0.981230 -0.059868
			-0.110510  0.989089 -0.097414
			-0.171268  0.978681 -0.113365
			-0.264075  0.934199  0.239867
			-0.375550  0.910923  0.170827
			-0.342694  0.938943  0.030773
			-0.208022  0.971373  0.114722
			-0.075679  0.995499 -0.057045
			-0.108262  0.973692 -0.200506
			-0.162055  0.959765 -0.229325
			-0.151356  0.988231  0.022142
			-0.118400  0.982371 -0.144668
			-0.051583  0.990865 -0.124601
			-0.035468  0.981002 -0.190727
			-0.049074  0.956231 -0.288468
			-0.212120  0.960026 -0.182632
			-0.347338  0.936968 -0.038050
			-0.393878  0.873791  0.285219
			-0.302365  0.922718  0.239098
			-0.467188  0.866549  0.175579
			-0.485359  0.829629  0.275940
			-0.441961  0.894928  0.061438
			-0.126348  0.986533  0.103869
			-0.252102  0.952937  0.168394
			 0.063537  0.986991 -0.147687
			 0.020737  0.997247  0.071191
			 0.073928  0.997253 -0.004606
			 0.077020  0.949562 -0.303973
			-0.035674  0.915196 -0.401426
			-0.028972  0.896288 -0.442524
			-0.026412  0.952814 -0.302404
			-0.139105  0.940862 -0.308917
			 0.018839  0.955186 -0.295407
			-0.051205  0.951497 -0.303366
			-0.257869  0.947697 -0.188079
			-0.340142  0.936296 -0.087486
			-0.427550  0.903951 -0.008593
			-0.491000  0.869091  0.060000
			-0.374454  0.872482  0.313941
			-0.444189  0.827546  0.343314
			-0.306649  0.918533  0.249526
			-0.556235  0.815698  0.158872
			-0.559483  0.791077  0.247336
			-0.502938  0.790578  0.349343
			-0.566119  0.747842  0.346759
			-0.067814  0.965831  0.250145
			 0.040713  0.986417  0.159134
			-0.196293  0.930642  0.308827
			 0.168555  0.940490 -0.295071
			 0.187638  0.974049 -0.126570
			 0.085181  0.986912  0.136930
			 0.060920  0.971176  0.230447
			 0.199060  0.978064  0.061371
			 0.110456  0.876792 -0.468012
			-0.017749  0.888376 -0.458773
			 0.029163  0.893795 -0.447526
			-0.011774  0.931415 -0.363768
			-0.227434  0.903329 -0.363690
			-0.288369  0.917893 -0.272610
			-0.210139  0.929825 -0.302104
			 0.046621  0.962763 -0.266296
			-0.021385  0.973589 -0.227306
			-0.165354  0.960022 -0.225867
			-0.385795  0.918540 -0.086290
			-0.496640  0.866644  0.047722
			-0.595399  0.791662  0.137008
			-0.300623  0.885779  0.353584
			-0.380913  0.792831  0.475735
			-0.444922  0.687365  0.574085
			-0.611893  0.770770  0.177486
			-0.613427  0.743515  0.266257
			-0.518482  0.705326  0.483416
			-0.651214  0.640766  0.406620
			-0.593625  0.697710  0.401012
			-0.151274  0.932483  0.328011
			-0.033142  0.955276  0.293854
			-0.280877  0.880611  0.381618
			 0.170089  0.919750 -0.353737
			 0.205735  0.952483 -0.224611
			 0.268429  0.961256 -0.062714
			 0.153591  0.969431  0.191347
			 0.106777  0.952046  0.286717
			-0.056476  0.958193  0.280495
			 0.248863  0.962421  0.108683
			 0.102347  0.894660 -0.434867
			 0.015813  0.929098 -0.369496
			-0.305432  0.877340 -0.370115
			-0.326381  0.891609 -0.313862
			-0.397997  0.877997 -0.265930
			-0.450061  0.885829 -0.112922
			-0.295576  0.928250 -0.225803
			 0.115238  0.927179 -0.356453
			 0.022048  0.980191 -0.196821
			 0.098211  0.943260 -0.317199
			 0.213643  0.942525 -0.256911
			 0.070100  0.979066 -0.191089
			 0.131477  0.934505 -0.330777
			-0.099776  0.974644 -0.200286
			-0.000214  0.978451 -0.206479
			-0.184651  0.962523 -0.198631
			-0.478633  0.877966 -0.009277
			-0.602891  0.791896  0.097071
			-0.341424  0.823214  0.453595
			-0.428709  0.779433  0.456830
			-0.608146  0.785535  0.114427
			-0.632573  0.754626  0.174332
			-0.665927  0.698001  0.263318
			-0.512416  0.730006  0.452240
			-0.691762  0.647108  0.320495
			-0.652768  0.632312  0.417224
			-0.718327  0.527933  0.453092
			-0.703103  0.588288  0.399454
			-0.740154  0.491860  0.458525
			-0.618140  0.668540  0.413469
			-0.216246  0.925225  0.311763
			-0.090041  0.911030  0.402389
			 0.213501  0.948803 -0.232786
			 0.365532  0.922636 -0.123000
			 0.325874  0.945083  0.024985
			 0.191538  0.954205  0.229794
			 0.130858  0.944142  0.302444
			 0.097639  0.924332  0.368886
			 0.302751  0.940091  0.156750
			-0.405831  0.847579 -0.341923
			-0.435236  0.853809 -0.285622
			-0.377306  0.900820 -0.214858
			-0.434436  0.852870 -0.289617
			-0.508624  0.823136 -0.252485
			-0.549767  0.830629 -0.088385
			-0.568052  0.822959 -0.007428
			-0.276593  0.930470 -0.240252
			-0.366751  0.913918 -0.173919
			 0.206625  0.924723 -0.319678
			 0.004488  0.978918 -0.204203
			 0.093567  0.946668 -0.308326
			 0.223924  0.895572 -0.384460
			 0.344504  0.849462 -0.399665
			 0.424360  0.865463 -0.266257
			 0.220679  0.957517 -0.185638
			 0.043036  0.978666 -0.200901
			 0.213225  0.947159 -0.239634
			 0.084335  0.972787 -0.215806
			-0.153954  0.938231 -0.309873
			-0.063154  0.976536 -0.205885
			-0.652251  0.757421  0.029702
			-0.252009  0.823847  0.507708
			-0.363543  0.737090  0.569680
			-0.444306  0.666291  0.598872
			-0.630552  0.774230  0.054519
			-0.642026  0.762468  0.080286
			-0.733303  0.662321  0.153615
			-0.776303  0.583721  0.237956
			-0.568594  0.652748  0.500620
			-0.515433  0.603579  0.608294
			-0.773970  0.532362  0.342872
			-0.685432  0.604496  0.405916
			-0.801281  0.325935  0.501713
			-0.706982  0.576170  0.410127
			-0.797496  0.403609  0.448443
			-0.780325  0.502187  0.372695
			-0.768616  0.513310  0.381762
			-0.856110  0.357102  0.373570
			-0.664379  0.579285  0.472261
			-0.012648  0.843698  0.536670
			 0.078218  0.848067  0.524085
			 0.353360  0.905846 -0.233624
			 0.510718  0.857096 -0.067481
			 0.470343  0.861453 -0.191511
			 0.487118  0.868592  0.090910
			 0.264041  0.932054  0.248108
			 0.145368  0.923511  0.354960
			 0.069827  0.851687  0.519377
			 0.459653  0.866816  0.193260
			-0.553383  0.782176 -0.286300
			-0.553116  0.760057 -0.341140
			-0.356478  0.895637 -0.266003
			-0.451585  0.842709 -0.293109
			-0.533749  0.793026 -0.293637
			-0.648906  0.757128 -0.075352
			-0.668827  0.720319 -0.183879
			-0.284561  0.894902 -0.343768
			 0.424147  0.854123 -0.300954
			 0.412032  0.882700 -0.225987
			 0.476030  0.774337 -0.416889
			 0.409222  0.771055 -0.487864
			 0.489126  0.762959 -0.422668
			 0.390567  0.905539 -0.165700
			 0.504315  0.840933 -0.196210
			 0.558042  0.788358 -0.258999
			 0.082004  0.959984 -0.267782
			-0.086121  0.977120 -0.194475
			 0.197570  0.941228 -0.273962
			 0.461817  0.868039 -0.182299
			 0.370960  0.862950 -0.343084
			 0.284588  0.901868 -0.325029
			-0.180686  0.921794 -0.342999
			-0.106973  0.935505 -0.336731
			-0.179767  0.952989 -0.243919
			-0.683910  0.728748 -0.034538
			-0.143228  0.820463  0.553467
			-0.190460  0.768700  0.610595
			-0.293849  0.749380  0.593366
			-0.298444  0.566442  0.768163
			-0.377830  0.499491  0.779585
			-0.452841  0.392108  0.800741
			-0.728613  0.683064  0.050460
			-0.865518  0.485070  0.124845
			-0.829659  0.550655  0.091901
			-0.922728  0.318642  0.216890
			-0.645077  0.482254  0.592712
			-0.596647  0.307516  0.741246
			-0.685686  0.585609  0.432314
			-0.898641  0.202591  0.389103
			-0.841228  0.257361  0.475500
			-0.722410  0.571930  0.388612
			-0.843964  0.270605  0.463139
			-0.859037  0.269783  0.435055
			-0.781377  0.460684  0.420977
			-0.938669  0.191657  0.286649
			-0.723161  0.372013  0.581932
			 0.007959  0.790989  0.611779
			 0.025501  0.795745  0.605094
			 0.142406  0.765576  0.627386
			 0.098732  0.761525  0.640571
			 0.625026  0.780110  0.027750
			 0.643022  0.762634 -0.070090
			 0.573905  0.796525 -0.190210
			 0.618227  0.782968  0.068962
			 0.602411  0.784864  0.145224
			 0.361660  0.890400  0.276387
			 0.359705  0.863243  0.354151
			 0.181000  0.865004  0.467982
			 0.031766  0.749030  0.661774
			 0.536416  0.802318  0.261809
			-0.705823  0.681239 -0.194236
			-0.757410  0.638731 -0.135474
			-0.490940  0.716747 -0.495228
			-0.693316  0.675243 -0.251714
			-0.370845  0.876479 -0.307016
			-0.574573  0.752625 -0.321592
			-0.451068  0.853914 -0.259554
			-0.521603  0.805591 -0.280986
			-0.594253  0.771645 -0.226775
			-0.717859  0.685454 -0.121781
			-0.276038  0.919734 -0.279092
			 0.538512  0.793697 -0.282931
			 0.556470  0.743401 -0.371073
			 0.686465  0.594090 -0.419313
			 0.548496  0.668184 -0.502674
			 0.657256  0.653454 -0.375517
			 0.571717  0.692770 -0.439556
			 0.496478  0.857346 -0.135896
			 0.564309  0.814333 -0.135712
			 0.631186  0.762820 -0.140391
			 0.612112  0.763596 -0.205524
			 0.613448  0.703865 -0.358128
			-0.055464  0.956872 -0.285165
			 0.251029  0.904074 -0.345882
			 0.162091  0.912315 -0.376042
			-0.177772  0.959473 -0.218653
			 0.488317  0.839765 -0.237365
			 0.523165  0.843560 -0.121262
			 0.344886  0.898437 -0.271781
			 0.259500  0.908984 -0.326202
			 0.240374  0.932057 -0.271092
			-0.256352  0.944344 -0.206152
			-0.752750  0.653585 -0.078701
			-0.058680  0.685820  0.725402
			-0.179749  0.614453  0.768204
			-0.186856  0.366660  0.911398
			-0.253819  0.310988  0.915894
			-0.337461  0.238029  0.910748
			-0.515431  0.160991  0.841673
			-0.389235  0.145080  0.909642
			-0.940507  0.326006  0.095739
			-0.874149  0.484949 -0.026230
			-0.948031  0.269773  0.168699
			-0.944783  0.176586  0.276049
			-0.676337  0.234686  0.698205
			-0.681789  0.256541  0.685092
			-0.605383  0.139615  0.783593
			-0.475027  0.051469  0.878465
			-0.733113  0.503717  0.456963
			-0.925866  0.107297  0.362297
			-0.897320  0.147141  0.416132
			-0.792149  0.320828  0.519202
			-0.830823  0.149215  0.536160
			-0.830910  0.017965  0.556116
			-0.809246  0.033534  0.586512
			-0.877374  0.057097  0.476398
			-0.771035  0.173926  0.612580
			-0.729269  0.075258  0.680075
			 0.145916  0.670649  0.727281
			 0.188711  0.687698  0.701042
			 0.086864  0.667479  0.739545
			 0.698994  0.713558  0.047352
			 0.674318  0.722053 -0.154709
			 0.727849  0.683422 -0.056305
			 0.700828  0.648328 -0.297508
			 0.617463  0.731908  0.288185
			 0.679261  0.707794  0.193989
			 0.496974  0.777609  0.385150
			 0.382489  0.802655  0.457654
			 0.102674  0.758958  0.642994
			 0.335261  0.783422  0.523306
			 0.072494  0.607190  0.791243
			-0.826572  0.550892 -0.115310
			-0.838251  0.528119 -0.135739
			-0.669457  0.690833 -0.273088
			-0.858645  0.436540 -0.268630
			-0.340488  0.915808 -0.212987
			-0.646256  0.690864 -0.324128
			-0.690037  0.606830 -0.394469
			-0.418626  0.891272 -0.174317
			-0.482590  0.853244 -0.197690
			-0.568168  0.795451 -0.210813
			 0.631122  0.665653 -0.398235
			 0.728031  0.617508 -0.297751
			 0.603527  0.690147 -0.399313
			 0.774765  0.505064 -0.380328
			 0.637281  0.760298 -0.125778
			 0.570651  0.814640 -0.103534
			 0.643297  0.718382 -0.264757
			 0.612193  0.752992 -0.241295
			 0.645679  0.748314 -0.152070
			 0.679449  0.715501 -0.162499
			 0.683260  0.653968 -0.324781
			-0.238997  0.952828 -0.187080
			-0.126042  0.961042 -0.245992
			-0.005855  0.949299 -0.314321
			 0.198850  0.910596 -0.362318
			 0.111412  0.927703 -0.356306
			 0.118671  0.940930 -0.317125
			 0.091727  0.919921 -0.381224
			 0.134764  0.937898 -0.319667
			 0.428958  0.882671 -0.192062
			 0.260412  0.949115 -0.177106
			 0.140976  0.962581 -0.231440
			-0.312150  0.928414 -0.201519
			-0.345341  0.910589 -0.227085
			 0.024745  0.564777  0.824872
			-0.079630  0.463367  0.882582
			 0.004177  0.288112  0.957588
			-0.204057  0.148540  0.967624
			-0.233299  0.117685  0.965257
			-0.290222  0.069830  0.954408
			-0.331449 -0.018990  0.943282
			-0.912745  0.408068  0.019434
			-0.876643  0.421441  0.232129
			-0.895171  0.340724  0.287359
			-0.903160  0.250983  0.348295
			-0.894404  0.165898  0.415354
			-0.665585  0.072029  0.742838
			-0.590761  0.067752  0.803997
			-0.395692 -0.045240  0.917269
			-0.885269 -0.051671  0.462200
			-0.918126 -0.134735  0.372680
			-0.915923 -0.083468  0.392579
			-0.894614 -0.070442  0.441252
			-0.934942  0.093240  0.342331
			-0.776523  0.053923  0.627777
			-0.781592 -0.061813  0.620720
			-0.821351 -0.108270  0.560053
			-0.713018 -0.122065  0.690439
			-0.735905 -0.085265  0.671694
			-0.711387 -0.124012  0.691772
			-0.703025 -0.066602  0.708040
			 0.181209  0.555863  0.811282
			 0.247944  0.530700  0.810482
			 0.230488  0.494628  0.837985
			 0.840042  0.535868 -0.084705
			 0.812931  0.581072  0.038720
			 0.806759  0.569721  0.156710
			 0.755964  0.598055 -0.266175
			 0.759813  0.613103 -0.216307
			 0.809897  0.471308 -0.349192
			 0.642095  0.700029  0.312529
			 0.697150  0.625960  0.349508
			 0.758447  0.504601  0.412476
			 0.794285  0.523247  0.308746
			 0.806524  0.532678  0.256461
			 0.416470  0.592619  0.689460
			 0.639991  0.555875  0.530484
			 0.262849  0.620891  0.738515
			 0.373647  0.413588  0.830260
			-0.877083  0.451634 -0.163562
			-0.853688  0.512455 -0.092770
			-0.933031  0.316586 -0.170956
			-0.757124  0.520275 -0.395065
			-0.854075  0.352383 -0.382599
			-0.906011  0.299362 -0.299211
			-0.929241  0.305613 -0.207632
			-0.677203  0.696187 -0.238158
			-0.750729  0.598921 -0.278746
			-0.414115  0.878173 -0.239416
			-0.505799  0.844501 -0.176026
			-0.622948  0.747416 -0.230879
			 0.482947  0.871413 -0.086030
			 0.796488  0.516193 -0.314884
			 0.741689  0.596983 -0.305792
			 0.827858  0.443978 -0.342832
			 0.717440  0.694375 -0.055879
			 0.497402  0.864154 -0.076342
			 0.388242  0.914235 -0.115943
			 0.647995  0.759169 -0.061354
			 0.692125  0.685201 -0.226852
			 0.760256  0.632634 -0.147594
			 0.726956  0.671337 -0.144366
			 0.777045  0.622035 -0.096298
			 0.810741  0.580527 -0.075421
			 0.812589  0.562009 -0.154418
			 0.743405  0.606751 -0.281428
			-0.120139  0.929651 -0.348303
			-0.269630  0.929481 -0.251724
			-0.433331  0.866700 -0.247093
			 0.049099  0.968433 -0.244392
			 0.063385  0.910766 -0.408029
			 0.011807  0.964186 -0.264963
			-0.027391  0.950662 -0.309017
			-0.101394  0.969720 -0.222176
			 0.023042  0.975194 -0.220149
			-0.060008  0.974679 -0.215405
			 0.054963  0.883614 -0.464978
			 0.064810  0.988430 -0.137133
			 0.258611  0.960700 -0.100880
			-0.475807  0.852798 -0.215276
			-0.435428  0.849830 -0.296970
			 0.119101  0.453421  0.883303
			 0.290849  0.335900  0.895867
			 0.257266  0.057593  0.964623
			 0.071044 -0.084168  0.993916
			-0.113878  0.117501  0.986522
			-0.210608 -0.012044  0.977496
			-0.205898 -0.071401  0.975965
			-0.159696 -0.154807  0.974952
			-0.321508 -0.103110  0.941276
			-0.169584 -0.149118  0.974169
			-0.349933 -0.134631  0.927050
			-0.864898  0.500918  0.032141
			-0.867353  0.463510  0.181267
			-0.891928  0.347800  0.288961
			-0.912697  0.273227  0.303861
			-0.950915  0.120904  0.284856
			-0.652055 -0.054242  0.756228
			-0.652343 -0.109581  0.749960
			-0.498797 -0.019754  0.866494
			-0.303804 -0.191616  0.933267
			-0.340865 -0.185446  0.921640
			-0.867324 -0.191248  0.459535
			-0.897969 -0.245474  0.365231
			-0.903490 -0.264408  0.337334
			-0.849126 -0.262958  0.458081
			-0.942335 -0.182137  0.280767
			-0.866991 -0.287138  0.407281
			-0.718213 -0.208187  0.663949
			-0.742501 -0.299214  0.599303
			-0.671856 -0.266808  0.690958
			-0.657799 -0.274397  0.701432
			-0.604836 -0.402855  0.686936
			-0.634353 -0.229132  0.738305
			 0.519160  0.152655  0.840934
			 0.417514  0.270234  0.867557
			 0.257355  0.364591  0.894898
			 0.327238  0.165274  0.930376
			 0.872784  0.400034 -0.279680
			 0.937399  0.279837 -0.207303
			 0.934400  0.340739 -0.103888
			 0.907296  0.419571 -0.027805
			 0.909420  0.408583  0.077560
			 0.893480  0.423344  0.149907
			 0.895678  0.371968  0.243723
			 0.823649  0.409416  0.392404
			 0.856949  0.238940  0.456669
			 0.875295  0.275644  0.397341
			 0.838806  0.298962  0.455002
			 0.595371  0.255863  0.761622
			 0.606618  0.265997  0.749173
			 0.565170  0.088720  0.820190
			-0.906627  0.408984 -0.103727
			-0.883643  0.399774 -0.243631
			-0.866210  0.458192 -0.199351
			-0.824138  0.471625 -0.313635
			-0.870127  0.376721 -0.317741
			-0.917694  0.282258 -0.279585
			-0.918428  0.212781 -0.333487
			-0.873770  0.331387 -0.355962
			-0.677897  0.658926 -0.325994
			-0.744565  0.600899 -0.290764
			-0.805423  0.525502 -0.274120
			-0.547892  0.779394 -0.303907
			 0.881513  0.414678 -0.225782
			 0.812929  0.535360 -0.229210
			 0.832331  0.506182 -0.225842
			 0.927242  0.248566 -0.280067
			 0.824595  0.558396 -0.090756
			 0.664610  0.746158  0.039272
			 0.742765  0.657665  0.125608
			 0.786258  0.617607  0.018981
			 0.454153  0.889723 -0.046249
			 0.552530  0.833214 -0.021563
			 0.325472  0.943042 -0.068848
			 0.823573  0.546982 -0.150127
			 0.832939  0.521135 -0.186093
			 0.920803  0.389557 -0.019148
			 0.847970  0.523030 -0.085947
			 0.887879  0.458122 -0.042362
			 0.879025  0.474951 -0.041680
			 0.895694  0.444359 -0.016638
			 0.868894  0.427915 -0.248821
			 0.916660  0.388259 -0.094819
			-0.288696  0.860280 -0.420205
			-0.108379  0.846337 -0.521506
			-0.303023  0.827091 -0.473390
			-0.420672  0.788322 -0.448980
			-0.579530  0.749401 -0.320224
			-0.576668  0.785896 -0.223208
			 0.002849  0.891864 -0.452295
			-0.071621  0.936840 -0.342346
			-0.123935  0.956132 -0.265426
			-0.212787  0.969930 -0.118144
			-0.254968  0.958038 -0.130976
			-0.117110  0.985944 -0.119165
			 0.193747  0.977859 -0.079088
			-0.028497  0.997100 -0.070561
			-0.576207  0.752616 -0.318676
			 0.407373  0.016297  0.913117
			 0.267654 -0.285559  0.920227
			-0.039945 -0.153836  0.987289
			 0.109278 -0.317783  0.941845
			-0.083853 -0.307781  0.947755
			 0.046278 -0.341500  0.938742
			-0.008094 -0.263596  0.964599
			-0.256419 -0.245102  0.934973
			-0.114736 -0.295959  0.948285
			-0.229170 -0.327791  0.916534
			-0.921339  0.388672 -0.008268
			-0.929029  0.352043  0.113891
			-0.969902  0.159125  0.184306
			-0.976275  0.016527  0.215902
			-0.538120 -0.166823  0.826194
			-0.529264 -0.239435  0.813972
			-0.265458 -0.349880  0.898396
			-0.373177 -0.315269  0.872550
			-0.872048 -0.303555  0.383910
			-0.844848 -0.377606  0.379006
			-0.798671 -0.389960  0.458319
			-0.956303 -0.260626  0.132508
			-0.893091 -0.416337  0.170446
			-0.876203 -0.400758  0.267695
			-0.872325 -0.349624  0.341779
			-0.651090 -0.403856  0.642637
			-0.694357 -0.470604  0.544426
			-0.580096 -0.455660  0.675176
			-0.620212 -0.374689  0.689163
			-0.488520 -0.591635  0.641340
			-0.585086 -0.531689  0.612356
			-0.509376 -0.384414  0.769910
			 0.549542 -0.128092  0.825588
			 0.537235  0.017549  0.843250
			 0.349853  0.084500  0.932986
			 0.380402 -0.173920  0.908320
			 0.404591 -0.141171  0.903536
			 0.967242  0.172835 -0.185932
			 0.976976  0.206902 -0.052046
			 0.959176  0.277041  0.056829
			 0.946610  0.279089  0.161363
			 0.892983  0.232036  0.385668
			 0.934144  0.202013  0.294221
			 0.913132  0.028850  0.406641
			 0.869891 -0.020419  0.492822
			 0.782593  0.137479  0.607163
			 0.849104  0.101910  0.518302
			 0.699826  0.115102  0.704979
			 0.785462  0.030310  0.618167
			 0.713425 -0.098192  0.693818
			-0.954406  0.251924 -0.160135
			-0.990933  0.108804 -0.078821
			-0.987797  0.152200  0.033045
			-0.917008  0.290442 -0.273385
			-0.933088  0.313030 -0.177085
			-0.863872  0.422498 -0.274264
			-0.878352  0.403675 -0.256016
			-0.925869  0.295073 -0.236006
			-0.956503  0.152494 -0.248690
			-0.955935  0.107158 -0.273321
			-0.953045  0.128106 -0.274398
			-0.921344  0.123112 -0.368739
			-0.864863  0.243073 -0.439235
			-0.894819  0.201276 -0.398480
			-0.670121  0.654290 -0.350489
			-0.704344  0.632885 -0.321491
			-0.705365  0.642632 -0.299140
			-0.804350  0.512704 -0.300260
			-0.862191  0.435910 -0.258086
			 0.890043  0.429321 -0.153322
			 0.934922  0.313058 -0.167081
			 0.864798  0.450769 -0.221205
			 0.735345  0.654285 -0.176573
			 0.969117  0.125317 -0.212387
			 0.601381  0.798842  0.013873
			 0.705708  0.699849  0.110398
			 0.787189  0.604253  0.123338
			 0.763881  0.635593  0.111837
			 0.403978  0.912290 -0.067294
			 0.471682  0.880306 -0.050762
			 0.593485  0.803713  0.042683
			 0.306345  0.940642 -0.146103
			 0.941554  0.323307 -0.094592
			 0.914221  0.387207  0.119457
			 0.965376  0.217129  0.144583
			 0.994142 -0.014443 -0.107109
			 0.990728  0.105369  0.085763
			 0.994594  0.102156 -0.018616
			 0.992421 -0.041235 -0.115758
			 0.957369  0.286489 -0.036985
			 0.979007  0.202302  0.024895
			 0.965650  0.255773  0.045819
			 0.933174  0.357546  0.036709
			 0.957019  0.289168  0.022303
			 0.958504  0.257673 -0.121960
			 0.984052  0.177852  0.003191
			-0.311039  0.787379 -0.532249
			-0.231937  0.822404 -0.519477
			-0.128656  0.885917 -0.445644
			-0.498064  0.760497 -0.416624
			-0.624054  0.714774 -0.315680
			-0.180874  0.941660 -0.283834
			-0.151784  0.984183 -0.091354
			-0.216615  0.971083 -0.100383
			-0.215921  0.967582 -0.131006
			-0.324979  0.941933 -0.084559
			-0.296002  0.942128 -0.157412
			 0.060735  0.990395 -0.124216
			 0.182364  0.979371 -0.087039
			 0.379176 -0.309024  0.872198
			 0.140506 -0.339131  0.930187
			 0.334969 -0.383537  0.860636
			 0.261113 -0.441668  0.858341
			 0.071320 -0.360499  0.930029
			-0.027897 -0.439971  0.897579
			-0.164890 -0.377424  0.911242
			-0.096028 -0.456480  0.884537
			-0.139775 -0.435770  0.889139
			-0.993811 -0.072262  0.084362
			-0.292509 -0.521682  0.801428
			-0.192706 -0.532834  0.823986
			-0.803727 -0.421848  0.419604
			-0.756980 -0.471592  0.452308
			-0.953146 -0.301608  0.023361
			-0.872115 -0.482534  0.081098
			-0.870741 -0.448539  0.201552
			-0.921998 -0.335647  0.193028
			-0.875243 -0.342093  0.341940
			-0.671844 -0.554903  0.490620
			-0.588172 -0.574374  0.569341
			-0.479946 -0.571428  0.665674
			-0.305576 -0.675182  0.671381
			-0.389963 -0.692310  0.607154
			-0.456247 -0.696756  0.553507
			-0.365685 -0.584293  0.724484
			 0.689213 -0.253272  0.678851
			 0.574765 -0.277990  0.769654
			 0.481607 -0.269800  0.833824
			 0.476253 -0.381354  0.792309
			 0.989875  0.043130 -0.135231
			 0.999826  0.017658 -0.005993
			 0.991623  0.116154  0.056494
			 0.964970  0.074540  0.251549
			 0.938737 -0.168829  0.300449
			 0.896134 -0.163785  0.412454
			 0.803076 -0.164220  0.572801
			 0.813582 -0.285939  0.506284
			-0.994182 -0.028934 -0.103754
			-0.993804 -0.111009 -0.005541
			-0.980737  0.061133 -0.185520
			-0.967885  0.099756 -0.230753
			-0.977507  0.018349 -0.210105
			-0.900701  0.359685 -0.243649
			-0.951619  0.212302 -0.222148
			-0.965564  0.010690 -0.259947
			-0.980160  0.077351 -0.182490
			-0.955031  0.018277 -0.295941
			-0.909351  0.019318 -0.415582
			-0.857516  0.154417 -0.490735
			-0.906425 -0.020424 -0.421872
			-0.970104 -0.108085 -0.217294
			-0.696193  0.643037 -0.319091
			-0.788704  0.506004 -0.349149
			-0.803512  0.464739 -0.372003
			-0.881217  0.332943 -0.335567
			 0.985191  0.075820 -0.153783
			 0.997250  0.032266 -0.066716
			 0.993864  0.109059 -0.018436
			 0.991558 -0.023112 -0.127585
			 0.706303  0.696062  0.128969
			 0.865717  0.484377  0.126150
			 0.391001  0.894890 -0.215153
			 0.540782  0.838229  0.070188
			 0.509222  0.860614  0.005966
			 0.485486  0.871369 -0.070848
			 0.142710  0.969094 -0.201221
			 0.209999  0.938785 -0.273098
			 0.996983 -0.061493  0.047356
			 0.929759  0.317185  0.186928
			 0.972189  0.126376  0.197175
			 0.983490  0.085780  0.159339
			 0.969297 -0.245853  0.004494
			 0.966130 -0.234434 -0.107856
			 0.982519 -0.127219  0.135909
			 0.978597 -0.203957  0.027375
			 0.937842 -0.339663 -0.071284
			 0.994827 -0.085513  0.054831
			 0.985670  0.118245  0.120303
			 0.992589 -0.000702  0.121517
			 0.996944 -0.058842  0.051378
			-0.459744  0.690587 -0.558324
			-0.368416  0.747793 -0.552337
			-0.264002  0.918519 -0.294322
			-0.367012  0.855229 -0.365903
			-0.593205  0.719153 -0.361838
			-0.035518  0.977466 -0.208085
			-0.085011  0.960447 -0.265167
			-0.241818  0.951153 -0.191915
			-0.359966  0.926801 -0.107072
			-0.358701  0.917840 -0.170009
			 0.079299  0.964175 -0.253138
			 0.150777 -0.422011  0.893965
			 0.402584 -0.437390  0.804124
			 0.179273 -0.533996  0.826262
			 0.334276 -0.596988  0.729290
			 0.067210 -0.482069  0.873552
			 0.064106 -0.557555  0.827661
			 0.033035 -0.582706  0.812012
			-0.082252 -0.532700  0.842298
			-0.148286 -0.579166  0.801610
			-0.182834 -0.624132  0.759626
			-0.265383 -0.638211  0.722675
			-0.723362 -0.532205  0.439893
			-0.711524 -0.565457  0.417123
			-0.704226 -0.611685  0.360426
			-0.965656 -0.252471 -0.061380
			-0.906083 -0.419989  0.051217
			-0.870088 -0.490679  0.046705
			-0.888990 -0.442141  0.119201
			-0.933085 -0.353714  0.065111
			-0.913377 -0.393675  0.103743
			-0.866889 -0.440972  0.232479
			-0.563766 -0.673562  0.477999
			-0.223105 -0.772233  0.594878
			-0.145678 -0.732741  0.664732
			-0.321679 -0.742615  0.587405
			-0.405995 -0.726216  0.554777
			 0.696162 -0.426770  0.577258
			 0.607378 -0.397983  0.687533
			 0.582731 -0.438252  0.684368
			 0.492268 -0.516342  0.700759
			 0.990607 -0.136538 -0.007495
			 0.980467 -0.174749  0.090263
			 0.982322 -0.127615  0.136957
			 0.929156 -0.275501  0.246511
			 0.776653 -0.480680  0.407132
			 0.857424 -0.318725  0.404027
			-0.978865 -0.145862 -0.143346
			-0.931597  0.184944 -0.312926
			-0.967772  0.125614 -0.218261
			-0.946381 -0.095875 -0.308499
			-0.976155 -0.094101 -0.195618
			-0.986367 -0.036374 -0.160490
			-0.877708 -0.170555 -0.447817
			-0.855555  0.067668 -0.513271
			-0.883186 -0.166840 -0.438345
			-0.907386 -0.335628 -0.252991
			-0.934791 -0.318210 -0.157821
			-0.707815  0.543074 -0.451740
			-0.803676  0.421497 -0.420053
			-0.788815  0.387445 -0.477135
			-0.897064  0.270362 -0.349544
			 0.995483 -0.082654 -0.046715
			 0.987539 -0.147659 -0.054445
			 0.997338 -0.060203  0.041134
			 0.984729 -0.173230  0.017308
			 0.977216 -0.207751  0.043443
			 0.585206  0.798435  0.141548
			 0.800472  0.539294  0.261546
			 0.216281  0.941232 -0.259430
			 0.310412  0.922226 -0.230531
			 0.371252  0.908608 -0.191322
			 0.405949  0.901476 -0.150153
			 0.497162  0.863600 -0.083815
			 0.606434  0.794153  0.039481
			 0.070396  0.968261 -0.239821
			 0.917315 -0.365898  0.157012
			 0.894341 -0.435351  0.103070
			 0.899115  0.326364  0.291683
			 0.952697  0.125113  0.276974
			 0.957397 -0.093479  0.273226
			 0.976764 -0.093994  0.192609
			 0.913008 -0.404064 -0.056115
			 0.851479 -0.521502  0.054944
			 0.922154 -0.328795  0.203780
			 0.861145 -0.487795  0.143128
			 0.793727 -0.608134  0.013022
			 0.964050 -0.202582  0.171953
			 0.888424 -0.452363  0.077913
			 0.948799 -0.215105  0.231321
			 0.929015 -0.343136  0.138522
			 0.978422 -0.188494  0.084624
			-0.579637  0.593684 -0.558176
			-0.618374  0.549575 -0.561766
			-0.497714  0.694244 -0.519909
			-0.459482  0.802730 -0.380133
			-0.447463  0.870700 -0.204105
			-0.269932  0.933968 -0.234182
			-0.003183  0.965683 -0.259703
			-0.116334  0.956142 -0.268811
			-0.189921  0.948800 -0.252407
			-0.399697  0.907739 -0.127484
			-0.449873  0.889053 -0.084851
			 0.187666 -0.638707  0.746213
			 0.456496 -0.651736  0.605683
			 0.364991 -0.670621  0.645793
			 0.272077 -0.662969  0.697457
			-0.063915 -0.655330  0.752633
			 0.099262 -0.698707  0.708489
			-0.065959 -0.702557  0.708564
			-0.678907 -0.624864  0.385525
			-0.669152 -0.663680  0.334311
			-0.618170 -0.663865  0.420890
			-0.754802 -0.632444  0.174039
			-0.607185 -0.763223  0.220944
			-0.639453 -0.731064  0.238003
			-0.641170 -0.705701  0.301476
			-0.964622 -0.260974 -0.037376
			-0.874330 -0.463532  0.143823
			-0.853560 -0.515617  0.074661
			-0.905086 -0.388170  0.173616
			-0.862698 -0.491129  0.120599
			-0.941093 -0.319187  0.111639
			-0.958138 -0.274986  0.079716
			-0.862025 -0.497951  0.094648
			-0.431156 -0.741573  0.513978
			-0.216277 -0.817341  0.534021
			-0.100359 -0.810433  0.577171
			 0.039325 -0.758201  0.650833
			 0.707591 -0.484913  0.513979
			 0.649081 -0.460244  0.605697
			 0.596583 -0.522280  0.609354
			 0.839672 -0.444599  0.311901
			 0.871392 -0.448777  0.198179
			 0.914322 -0.372370  0.159234
			 0.827146 -0.498772  0.258953
			 0.803239 -0.498366  0.326248
			 0.769136 -0.491600  0.408362
			-0.967618  0.056345 -0.246052
			-0.932987 -0.253743 -0.255247
			-0.960407 -0.244418 -0.133706
			-0.972655 -0.179264 -0.147671
			-0.838558 -0.411586 -0.356956
			-0.805696 -0.447407 -0.388176
			-0.860925 -0.448873 -0.239416
			-0.843939 -0.463783 -0.269578
			-0.734226  0.453483 -0.505238
			-0.786340  0.417833 -0.455066
			-0.721443  0.443877 -0.531501
			-0.785495  0.487782 -0.380875
			-0.910205  0.254596 -0.326661
			-0.949954  0.081373 -0.301607
			 0.953568 -0.276304  0.119852
			 0.979561 -0.200269  0.018765
			 0.959508 -0.274213  0.064427