<?xml version="1.0"?>
<VTKFile type="PolyData" version="0.1" byte_order="LittleEndian" compressor="vtkZLibDataCompressor">
	<PolyData>
		<Piece NumberOfPoints="30064" NumberOfVerts="0" NumberOfLines="0" NumberOfStrips="0" NumberOfPolys="60144">
		<PointData Normals="Normals">
		<DataArray type="Float32" Name="Normals" NumberOfComponents="3" format="ascii">
			-0.293382  0.953901 -0.063249
			-0.242590  0.969581 -0.032604
			-0.350648  0.932482 -0.086735
			-0.274560  0.961515  0.010323
			-0.478233  0.878065 -0.017178
			-0.187427  0.980815  0.053593
			-0.324979  0.945297  0.028340
			-0.243373  0.965323 -0.094457
			-0.289752  0.954909 -0.064754
			-0.341352  0.929625 -0.138839
			-0.376028  0.921646 -0.095771
			-0.531150  0.847266 -0.004469
			-0.583579  0.812026 -0.007068
			-0.317155  0.943889 -0.092120
			-0.260175  0.961964  0.083270
			-0.520386  0.849813  0.083762
			-0.619203  0.782701  0.062981
			-0.258114  0.959995  0.108564
			-0.302160  0.947875  0.101158
			-0.396343  0.917882  0.020128
			-0.365937  0.927894  0.071439
			-0.423818  0.905741 -0.003256
			-0.367831  0.919414 -0.139207
			-0.238584  0.951559 -0.193942
			-0.454815  0.877630 -0.151357
			-0.423067  0.889976 -0.170167
			-0.563882  0.822926 -0.069494
			-0.600498  0.798107  0.049267
			-0.428607  0.893445  0.134358
			-0.547862  0.828179  0.118182
			-0.612221  0.784789  0.096392
			-0.382673  0.908436  0.168240
			-0.382360  0.901634  0.202131
			-0.391484  0.913370  0.111782
			-0.365396  0.930665  0.018652
			-0.416598  0.909009 -0.012220
			-0.406712  0.913267  0.022999
			-0.353904  0.924496  0.141631
			-0.310329  0.938388  0.152062
			-0.214885  0.966305  0.141702
			-0.324254  0.939797  0.107890
			-0.394611  0.912816  0.105114
			-0.460587  0.872067 -0.165404
			-0.468565  0.841032 -0.270393
			-0.418158  0.868868 -0.264977
			-0.385485  0.903447 -0.187576
			-0.401777  0.905471 -0.136738
			-0.449769  0.887120 -0.103564
			-0.409639  0.908080 -0.087103
			-0.449426  0.892354 -0.041473
			-0.484381  0.858088 -0.170470
			-0.512412  0.853195 -0.097434
			-0.537538  0.843235  0.002893
			-0.565202  0.821733  0.072810
			-0.506230  0.861073  0.047790
			-0.556678  0.813546  0.168086
			-0.497759  0.850483  0.170047
			-0.523454  0.845320  0.106915
			-0.446414  0.860350  0.245993
			-0.421143  0.884388  0.201237
			-0.441775  0.882405  0.161854
			-0.252388  0.967378  0.021925
			-0.319234  0.942846  0.095559
			-0.366892  0.929374 -0.040677
			-0.401377  0.915868  0.009092
			-0.422442  0.900351 -0.104458
			-0.372443  0.926098  0.060230
			-0.321792  0.925278  0.200773
			-0.282966  0.919389  0.273229
			-0.225915  0.948084  0.223827
			-0.180668  0.947640  0.263319
			-0.172229  0.974684  0.142578
			-0.103573  0.979741  0.171404
			-0.159195  0.958297  0.237328
			-0.327314  0.921208  0.210335
			-0.420706  0.886032  0.194820
			-0.448620  0.843797 -0.294530
			-0.451079  0.807465 -0.380170
			-0.346032  0.894993 -0.281514
			-0.343544  0.830361 -0.438724
			-0.372252  0.900003 -0.226767
			-0.367059  0.908372 -0.200321
			-0.333578  0.908726 -0.250885
			-0.339147  0.924509 -0.173963
			-0.414462  0.909040 -0.043216
			-0.439493  0.898195 -0.009600
			-0.464858  0.885344  0.008537
			-0.486393  0.872985  0.036319
			-0.419369  0.893296  0.161714
			-0.445203  0.894020  0.050229
			-0.474734  0.836475  0.273746
			-0.400431  0.867431  0.295327
			-0.274170  0.955809 -0.106113
			-0.278782  0.956592 -0.084919
			-0.220570  0.965062  0.141436
			-0.188514  0.963290  0.191139
			-0.290444  0.956627  0.022503
			-0.239158  0.941676  0.236749
			-0.337216  0.935338  0.106899
			-0.319145  0.937589 -0.138108
			-0.324094  0.945080 -0.042270
			-0.346808  0.937291 -0.034768
			-0.384779  0.879624 -0.279653
			-0.275177  0.954540  0.114589
			-0.214502  0.940383  0.263949
			-0.253519  0.906821  0.336754
			-0.232616  0.916174  0.326367
			-0.138907  0.954865  0.262562
			-0.054421  0.969629  0.238447
			-0.183961  0.932835  0.309802
			-0.286159  0.885419  0.366260
			-0.432252  0.839455  0.329353
			-0.381505  0.778106 -0.499004
			-0.344957  0.779037 -0.523552
			-0.346778  0.877296 -0.331808
			-0.260089  0.745075 -0.614180
			-0.244985  0.754159 -0.609283
			-0.289190  0.747675 -0.597788
			-0.330470  0.829397 -0.450433
			-0.326790  0.884257 -0.333615
			-0.291577  0.871861 -0.393500
			-0.304644  0.898716 -0.315439
			-0.398440  0.907950 -0.129894
			-0.461092  0.874777 -0.148860
			-0.456033  0.886018 -0.083702
			-0.463362  0.886059  0.013940
			-0.480923  0.875217  0.052041
			-0.447388  0.893534  0.037954
			-0.341357  0.891217  0.298675
			-0.356373  0.906253  0.227382
			-0.375719  0.911377  0.168009
			-0.416234  0.901664  0.117265
			-0.507062  0.794342  0.334528
			-0.436663  0.809152  0.393189
			-0.278259  0.944644 -0.173838
			-0.341956  0.939192 -0.031380
			-0.344103  0.938771 -0.017410
			-0.270710  0.956382 -0.109766
			-0.197954  0.949581  0.243128
			-0.282817  0.949653  0.134808
			-0.230686  0.951359  0.204206
			-0.305348  0.949838  0.067597
			-0.190628  0.964642  0.182006
			-0.280511  0.950506  0.133609
			-0.287311  0.945459 -0.153493
			-0.208726  0.977717 -0.022435
			-0.198407  0.980013 -0.014468
			-0.264235  0.940545 -0.213436
			-0.326243  0.872614 -0.363469
			-0.382722  0.809343 -0.445519
			-0.176242  0.974024  0.142184
			-0.200405  0.948170  0.246600
			-0.204403  0.917318  0.341682
			-0.228698  0.900404  0.370093
			 0.011169  0.939693  0.341835
			-0.100454  0.905554  0.412165
			-0.203001  0.919978  0.335308
			 0.134578  0.945186  0.297509
			 0.013388  0.946650  0.321984
			-0.171586  0.938420  0.299877
			-0.028028  0.932461  0.360182
			-0.200478  0.865669  0.458722
			-0.383486  0.818671  0.427454
			-0.396895  0.736237 -0.548114
			-0.362134  0.684312 -0.632911
			-0.287463  0.727602 -0.622864
			-0.307794  0.768562 -0.560869
			-0.200685  0.679693 -0.705509
			-0.206855  0.639720 -0.740250
			-0.245832  0.720799 -0.648086
			-0.244359  0.600985 -0.760990
			-0.293216  0.809572 -0.508545
			-0.236154  0.831857 -0.502240
			-0.376937  0.860385 -0.343011
			-0.289174  0.794353 -0.534211
			-0.424922  0.834839 -0.349979
			-0.476866  0.792517 -0.380152
			-0.474060  0.848313 -0.235863
			-0.480581  0.832237 -0.276449
			-0.475216  0.879587 -0.022270
			-0.506704  0.857738 -0.086810
			-0.532821  0.843341  0.069834
			-0.533285  0.844224  0.053789
			-0.486804  0.873077  0.027556
			-0.515904  0.855806  0.037940
			-0.544018  0.837610  0.049533
			-0.467978  0.859902  0.203875
			-0.587136  0.801178  0.115695
			-0.563096  0.823016  0.074616
			-0.569860  0.805138  0.164354
			-0.520920  0.852395  0.045450
			-0.566509  0.821334  0.066919
			-0.599961  0.796391  0.076212
			-0.534092  0.842409  0.071362
			-0.483253  0.872776  0.068769
			-0.591526  0.799469  0.104626
			-0.298469  0.908489  0.292515
			-0.313295  0.867621  0.386108
			-0.291036  0.891701  0.346651
			-0.359172  0.901831  0.240200
			-0.409314  0.765229  0.496877
			-0.396827  0.768070  0.502590
			-0.326631  0.814134  0.480103
			-0.325968  0.944911  0.029804
			-0.319630  0.946818 -0.037041
			-0.347143  0.937595 -0.020205
			-0.261881  0.965080 -0.006301
			-0.187823  0.981025 -0.048080
			-0.187395  0.978736  0.083425
			-0.229454  0.973236 -0.012733
			-0.164939  0.985863  0.029480
			-0.192110  0.977987 -0.081455
			-0.252363  0.915652 -0.312881
			-0.233789  0.950110 -0.206481
			-0.315679  0.878468 -0.358666
			-0.372598  0.772232 -0.514615
			-0.399968  0.688504 -0.604969
			-0.232949  0.967388  0.099476
			-0.260088  0.945102  0.197829
			-0.251166  0.922486  0.293147
			-0.231692  0.900865  0.367099
			-0.034414  0.906964  0.419799
			-0.197914  0.906370  0.373261
			-0.010073  0.922713  0.385355
			-0.150028  0.924610  0.350125
			-0.098043  0.903948  0.416252
			-0.023281  0.891938  0.451558
			-0.040352  0.875601  0.481347
			-0.161067  0.836629  0.523555
			-0.321123  0.797553  0.510675
			-0.348143  0.610842 -0.711104
			-0.284859  0.636228 -0.716986
			-0.240161  0.635349 -0.733931
			-0.172904  0.608980 -0.774111
			-0.223230  0.543388 -0.809258
			-0.216961  0.578670 -0.786174
			-0.187167  0.694978 -0.694244
			-0.216956  0.583035 -0.782944
			-0.164112  0.675004 -0.719330
			-0.208149  0.570237 -0.794672
			-0.204354  0.699769 -0.684517
			-0.375720  0.715507 -0.588969
			-0.211446  0.604882 -0.767729
			-0.263298  0.620889 -0.738357
			-0.437075  0.725306 -0.531880
			-0.446168  0.796347 -0.408369
			-0.448192  0.804575 -0.389594
			-0.505719  0.793090 -0.339494
			-0.605150  0.753728 -0.256295
			-0.581518  0.806898 -0.103693
			-0.528273  0.849033  0.008395
			-0.604338  0.795028  0.052029
			-0.598379  0.795566  0.094960
			-0.653793  0.742432  0.146114
			-0.637914  0.763409  0.101354
			-0.313614  0.879984  0.356756
			-0.412206  0.851272  0.324688
			-0.494548  0.804642  0.328593
			-0.586169  0.757063  0.288550
			-0.684236  0.714275  0.147083
			-0.673372  0.712737  0.196409
			-0.713661  0.691306  0.113066
			-0.712920  0.690014  0.125005
			-0.688713  0.713525  0.128675
			-0.713594  0.669963  0.204776
			-0.249961  0.873478  0.417799
			-0.272841  0.861443  0.428338
			-0.273418  0.858206  0.434426
			-0.325779  0.758646  0.564202
			-0.255384  0.775778  0.577016
			-0.239568  0.798971  0.551592
			-0.273137  0.830316  0.485770
			-0.305253  0.951268  0.043708
			-0.303422  0.947481  0.101071
			-0.193839  0.977845 -0.079029
			-0.224821  0.966461 -0.124132
			-0.216628  0.976252 -0.002190
			-0.258164  0.962892 -0.078674
			-0.150034  0.979197 -0.136612
			-0.133861  0.985426 -0.104957
			-0.193564  0.956637 -0.217668
			-0.273958  0.898508 -0.342971
			-0.338442  0.806254 -0.485192
			-0.347999  0.654833 -0.670888
			-0.201020  0.969802  0.138115
			-0.260206  0.955733  0.137356
			-0.193978  0.930255  0.311447
			-0.173656  0.913991  0.366694
			-0.144146  0.891494  0.429489
			-0.122706  0.890003  0.439133
			-0.050161  0.870415  0.489756
			-0.037464  0.861943  0.505619
			-0.033206  0.853954  0.519288
			-0.040670  0.817734  0.574158
			-0.041177  0.779320  0.625272
			-0.101371  0.787979  0.607300
			-0.250433  0.755416  0.605500
			-0.303161  0.613650 -0.729059
			-0.333656  0.612213 -0.716846
			-0.327380  0.591362 -0.736962
			-0.322728  0.626025 -0.709886
			-0.261304  0.557636 -0.787885
			-0.322047  0.610893 -0.723253
			-0.242750  0.531648 -0.811433
			-0.253806  0.450016 -0.856194
			-0.254170  0.471275 -0.844569
			-0.164633  0.583887 -0.794967
			-0.165932  0.497306 -0.851559
			-0.206063  0.462084 -0.862564
			-0.276335  0.584073 -0.763215
			-0.340717  0.679679 -0.649576
			-0.165257  0.497223 -0.851739
			-0.369679  0.769598 -0.520631
			-0.414830  0.809119 -0.416225
			-0.437390  0.844217 -0.309819
			-0.505635  0.836732 -0.210268
			-0.586795  0.775236 -0.233839
			-0.614218  0.781100 -0.112334
			-0.655123  0.751740 -0.075506
			-0.636480  0.763045  0.112495
			-0.597682  0.794896  0.104483
			-0.600708  0.798823  0.032140
			-0.725131  0.643245  0.245805
			-0.693479  0.689468  0.209097
			-0.658548  0.737550  0.149448
			-0.344900  0.813838  0.467666
			-0.263975  0.824921  0.499822
			-0.447803  0.786521  0.425274
			-0.539497  0.733838  0.412826
			-0.711091  0.641273  0.288302
			-0.635863  0.662069  0.396665
			-0.768921  0.601088  0.217840
			-0.794868  0.583642  0.165970
			-0.803999  0.571519  0.164172
			-0.775677  0.603346  0.185201
			-0.727858  0.647747  0.225048
			-0.285451  0.813926  0.506005
			-0.301938  0.803175  0.513560
			-0.252305  0.737731  0.626175
			-0.199189  0.746674  0.634666
			-0.256969  0.799632  0.542730
			-0.184728  0.741743  0.644742
			-0.221030  0.764781  0.605191
			-0.186484  0.978126  0.092155
			-0.168938  0.984691  0.042945
			-0.236219  0.964736 -0.116124
			-0.173619  0.970842 -0.165293
			-0.230005  0.973161 -0.007441
			-0.145415  0.938997 -0.311671
			-0.105461  0.985441 -0.133357
			-0.136058  0.961283 -0.239632
			-0.178608  0.969435 -0.168209
			-0.130223  0.986492 -0.099379
			-0.202891  0.846458 -0.492285
			-0.298039  0.744378 -0.597557
			-0.126206  0.991124  0.041773
			-0.155364  0.967101  0.201438
			-0.136058  0.961966  0.236874
			-0.102086  0.914139  0.392337
			-0.069386  0.879316  0.471157
			-0.046510  0.863857  0.501586
			 0.037723  0.839291  0.542373
			-0.031595  0.827997  0.559842
			 0.024636  0.826200  0.562837
			-0.063799  0.759523  0.647344
			-0.061566  0.728511  0.682262
			 0.047030  0.785929  0.616526
			 0.000786  0.673644  0.739055
			 0.043482  0.671540  0.739691
			 0.120471  0.703812  0.700097
			-0.133580  0.742261  0.656662
			-0.246746  0.733094 -0.633790
			-0.239001  0.628064 -0.740549
			-0.267112  0.604823 -0.750227
			-0.258444  0.622480 -0.738732
			-0.347596  0.616847 -0.706170
			-0.287406  0.568820 -0.770611
			-0.341471  0.392934 -0.853815
			-0.254474  0.350735 -0.901237
			-0.370558  0.525105 -0.766128
			-0.270243  0.370110 -0.888812
			-0.303195  0.285361 -0.909198
			-0.255383  0.293772 -0.921128
			-0.156058  0.236580 -0.958997
			-0.171787  0.397038 -0.901582
			-0.228625  0.202759 -0.952166
			-0.117621  0.380169 -0.917408
			-0.200094  0.617168 -0.760964
			-0.210721  0.728412 -0.651930
			-0.085121  0.542984 -0.835418
			-0.342125  0.808164 -0.479398
			-0.236088  0.750816 -0.616877
			-0.349002  0.813042 -0.466005
			-0.479013  0.831551 -0.281194
			-0.427315  0.845043 -0.321411
			-0.483996  0.864371 -0.136417
			-0.362050  0.852449 -0.377161
			-0.519399  0.848853 -0.098353
			-0.538616  0.842197 -0.024424
			-0.641493  0.752375  0.149729
			-0.603644  0.789360  0.111910
			-0.621336  0.768026  0.155167
			-0.591677  0.802212  0.079843
			-0.662913  0.715249  0.221281
			-0.657871  0.724157  0.206889
			-0.332279  0.766111  0.550149
			-0.405267  0.760274  0.507683
			-0.504165  0.717806  0.480179
			-0.597350  0.656051  0.461270
			-0.715908  0.597063  0.361928
			-0.794349  0.543537  0.271253
			-0.835823  0.493963  0.239583
			-0.821632  0.525372  0.221143
			-0.768430  0.613770  0.181114
			-0.777738  0.594859  0.203142
			-0.706410  0.677679  0.204293
			-0.662195  0.731081  0.164371
			-0.310145  0.774645  0.551122
			-0.285848  0.744661  0.603135
			-0.341918  0.757829  0.555686
			-0.328481  0.722970  0.607795
			-0.123216  0.741413  0.659640
			-0.063890  0.696495  0.714712
			-0.265788  0.721461  0.639414
			-0.155966  0.612263  0.775118
			-0.242146  0.658252  0.712790
			-0.217342  0.621580  0.752596
			-0.160133  0.970624  0.179573
			-0.225902  0.968752  0.102407
			-0.279585  0.957089 -0.076245
			-0.242040  0.946600 -0.212992
			-0.235061  0.948562 -0.212075
			-0.273405  0.960994 -0.041726
			-0.145218  0.985819  0.084099
			-0.183269  0.982917 -0.016914
			-0.180414  0.896399 -0.404869
			-0.105339  0.979485 -0.171792
			-0.117591  0.946751 -0.299726
			-0.193736  0.950459 -0.243095
			-0.148569  0.974050 -0.170743
			-0.110287  0.940723  0.320743
			-0.104122  0.969188  0.223234
			-0.099349  0.914124  0.393073
			-0.054684  0.881617  0.468786
			-0.013820  0.826492  0.562779
			 0.032145  0.819772  0.571787
			 0.048484  0.825467  0.562365
			 0.074517  0.787869  0.611318
			 0.037264  0.827211  0.560655
			 0.074887  0.789350  0.609360
			-0.014238  0.700100  0.713903
			-0.071853  0.680004  0.729679
			 0.147711  0.735039  0.661740
			 0.030940  0.558965  0.828614
			 0.158265  0.524960  0.836283
			 0.144895  0.590264  0.794099
			 0.240612  0.651201  0.719752
			 0.275417  0.601016  0.750284
			-0.228670  0.769864 -0.595835
			-0.160235  0.702125 -0.693790
			-0.197763  0.635525 -0.746323
			-0.225775  0.661407 -0.715238
			-0.182473  0.638318 -0.747833
			-0.154709  0.531817 -0.832608
			-0.176045  0.584164 -0.792314
			-0.183908  0.578730 -0.794512
			-0.347246  0.542363 -0.765024
			-0.358655  0.493203 -0.792539
			-0.324022  0.451235 -0.831502
			-0.119657  0.309443 -0.943360
			-0.135723  0.211542 -0.967900
			-0.382073  0.317608 -0.867839
			-0.379285  0.089102 -0.920980
			-0.262642  0.029510 -0.964442
			-0.217378  0.095561 -0.971398
			-0.290913  0.166991 -0.942064
			-0.195657 -0.082204 -0.977221
			-0.028035  0.207736 -0.977783
			-0.096187  0.022330 -0.995113
			-0.003060 -0.059925 -0.998198
			-0.157332 -0.240363 -0.957848
			-0.053481  0.382809 -0.922278
			-0.108038  0.668638 -0.735697
			-0.057157  0.675106 -0.735503
			-0.087717  0.683037 -0.725097
			 0.013778  0.587747 -0.808928
			-0.005633  0.472996 -0.881047
			-0.260416  0.770564 -0.581734
			-0.299668  0.788483 -0.537116
			-0.082985  0.650266 -0.755161
			-0.125724  0.675164 -0.726875
			-0.256210  0.779300 -0.571881
			-0.279837  0.824429 -0.491943
			-0.471579  0.819582 -0.325421
			-0.553651  0.820108 -0.144548
			-0.590501  0.754014 -0.287701
			-0.546756  0.775682 -0.315240
			-0.406572  0.840244 -0.358732
			-0.505070  0.800838 -0.321812
			-0.509343  0.860051 -0.029689
			-0.561317  0.827454 -0.015623
			-0.310159  0.855122 -0.415413
			-0.365984  0.845433 -0.388971
			-0.541069  0.840618  0.024614
			-0.638831  0.748004  0.179956
			-0.631048  0.758632  0.162037
			-0.623565  0.772187  0.122040
			-0.647231  0.731583  0.214193
			-0.651752  0.726311  0.218384
			-0.308031  0.743106  0.594062
			-0.483465  0.696528  0.530198
			-0.414772  0.685753  0.598086
			-0.674953  0.592876  0.439246
			-0.606329  0.639241  0.473007
			-0.556949  0.618394  0.554434
			-0.771293  0.527172  0.356647
			-0.802056  0.498591  0.328805
			-0.836799  0.449266  0.312935
			-0.821814  0.458952  0.337615
			-0.740346  0.623445  0.251405
			-0.674633  0.702133  0.227773
			-0.709478  0.660979  0.244435
			-0.706336  0.638876  0.304841
			-0.716568  0.636005  0.286404
			-0.321549  0.746311  0.582775
			-0.292941  0.667941  0.684134
			-0.313141  0.698359  0.643612
			 0.047518  0.669804  0.741016
			-0.072670  0.607553  0.790948
			-0.016734  0.580466  0.814113
			 0.100885  0.588787  0.801967
			-0.278058  0.633023  0.722472
			-0.214499  0.519627  0.827030
			-0.093938  0.541137  0.835671
			-0.145106  0.434021  0.889140
			-0.252860  0.562831  0.786945
			-0.239874  0.550762  0.799451
			-0.172414  0.978468 -0.113463
			-0.087915  0.975538 -0.201485
			-0.017021  0.999342  0.032032
			-0.004124  0.990981  0.133937
			-0.029171  0.998304 -0.050379
			-0.157761  0.862793 -0.480312
			-0.050041  0.965401 -0.255922
			-0.025840  0.924227 -0.380967
			-0.072269  0.888756 -0.452648
			-0.064484  0.970139 -0.233822
			-0.113732  0.955660 -0.271624
			-0.100172  0.966576 -0.236001
			-0.070650  0.961003 -0.267361
			-0.056314  0.959570  0.275778
			-0.091596  0.940882  0.326116
			-0.001131  0.980486  0.196583
			-0.007164  0.902573  0.430477
			-0.033852  0.865282  0.500141
			 0.028279  0.780769  0.624180
			 0.019232  0.793506  0.608259
			 0.166825  0.760944  0.627004
			 0.146359  0.812005  0.565002
			 0.117949  0.757764  0.641781
			 0.026245  0.825462  0.563847
			 0.113968  0.718289  0.686347
			 0.165519  0.654107  0.738070
			 0.103179  0.767530  0.632655
			 0.229601  0.673653  0.702478
			 0.105797  0.810317  0.576362
			 0.074415  0.719698  0.690287
			 0.031776  0.637255  0.769998
			 0.151037  0.603781  0.782711
			 0.163990  0.397414  0.902867
			 0.119842  0.459890  0.879852
			 0.246357  0.475401  0.844572
			 0.329506  0.316858  0.889397
			 0.328611  0.467622  0.820576
			 0.362280  0.454022  0.814013
			-0.083782  0.792847 -0.603635
			-0.128180  0.727403 -0.674133
			-0.158594  0.724400 -0.670890
			-0.083645  0.684271 -0.724415
			 0.004854  0.628557 -0.777748
			-0.087178  0.501545 -0.860728
			 0.051548  0.248815 -0.967178
			 0.015884  0.520164 -0.853918
			-0.044990  0.393589 -0.918185
			-0.349883  0.238019 -0.906051
			-0.219276  0.087510 -0.971730
			 0.074464 -0.093363 -0.992844
			 0.109448 -0.267850 -0.957224
			 0.154440 -0.427806 -0.890579
			-0.303072 -0.093832 -0.948337
			-0.266998 -0.321212 -0.908590
			-0.102567 -0.434839 -0.894648
			-0.208112 -0.229030 -0.950913
			-0.132448 -0.334450 -0.933060
			-0.029096 -0.244073 -0.969320
			 0.046514  0.360598 -0.931561
			 0.066330 -0.007061 -0.997773
			 0.115529  0.138000 -0.983671
			 0.039322 -0.248690 -0.967785
			 0.105205 -0.267048 -0.957923
			 0.157354 -0.226700 -0.961169
			-0.109812 -0.409007 -0.905900
			 0.045389  0.492464 -0.869148
			 0.090485  0.544709 -0.833729
			 0.087973  0.575865 -0.812798
			 0.002868  0.602514 -0.798103
			-0.171035  0.745317 -0.644398
			-0.013033  0.676429 -0.736393
			-0.141453  0.713704 -0.686016
			-0.184563  0.780062 -0.597863
			-0.179223  0.825409 -0.535330
			-0.646287  0.742418 -0.176435
			-0.630268  0.776246 -0.014287
			-0.637185  0.744967 -0.197533
			-0.609203  0.740117 -0.284776
			-0.580571  0.763759 -0.282153
			-0.622387  0.750405 -0.222545
			-0.435885  0.834237 -0.337717
			-0.499069  0.824872 -0.265548
			-0.556884  0.784982 -0.271446
			-0.577840  0.814270  0.055365
			-0.637346  0.764193  0.098993
			-0.236252  0.840189 -0.488126
			-0.315525  0.852449 -0.416864
			-0.634877  0.746927  0.197565
			-0.612139  0.786703  0.079898
			-0.618343  0.771491  0.149848
			-0.699811  0.653747  0.287887
			-0.676316  0.693428  0.248504
			-0.342520  0.672865  0.655692
			-0.454364  0.617004  0.642542
			-0.679773  0.516465  0.520742
			-0.757032  0.458869  0.465125
			-0.597169  0.515631  0.614422
			-0.810305  0.450599  0.374656
			-0.870894  0.340187  0.354707
			-0.873225  0.358866  0.329687
			-0.807942  0.367944  0.460269
			-0.829718  0.337422  0.444650
			-0.732064  0.611425  0.300403
			-0.781667  0.452854  0.428858
			-0.706370  0.648412  0.283907
			-0.735739  0.592967  0.327229
			-0.731835  0.547484  0.405806
			-0.714880  0.557913  0.421520
			 0.115879  0.517222  0.847970
			-0.018301  0.530022  0.847787
			 0.185737  0.486095  0.853940
			 0.223461  0.471678  0.852986
			-0.278359  0.620339  0.733278
			-0.202541  0.541702  0.815804
			-0.201892  0.486016  0.850311
			-0.057692  0.459424  0.886341
			-0.048751  0.298969  0.953017
			-0.091826  0.246282  0.964838
			-0.146950  0.401212  0.904121
			-0.031283  0.985588 -0.166245
			 0.014490  0.996896  0.077384
			 0.057422  0.997902  0.029913
			 0.026209  0.994844 -0.097969
			-0.024988  0.934255 -0.355728
			-0.041290  0.850829 -0.523818
			 0.087406  0.949247 -0.302143
			 0.108704  0.979575 -0.169161
			 0.080554  0.913401 -0.399010
			 0.025937  0.931024 -0.364036
			 0.008849  0.962416  0.271434
			 0.044506  0.946321  0.320149
			 0.094462  0.971052  0.219396
			 0.147965  0.980490  0.129407
			 0.170818  0.905599  0.388216
			 0.190434  0.846652  0.496905
			 0.020964  0.870300  0.492075
			 0.026975  0.791792  0.610195
			 0.254525  0.737947  0.625021
			 0.218390  0.711597  0.667784
			 0.297756  0.802978  0.516302
			 0.321961  0.754436  0.571986
			 0.107775  0.793862  0.598471
			 0.258008  0.706136  0.659396
			 0.229254  0.702174  0.674088
			 0.283082  0.688530  0.667676
			 0.228906  0.541190  0.809145
			 0.314872  0.548214  0.774801
			 0.276833  0.559280  0.781390
			 0.393371  0.464814  0.793226
			 0.231549  0.690154  0.685619
			 0.112297  0.661917  0.741118
			 0.334308  0.439031  0.833960
			 0.315070  0.522517  0.792279
			 0.270433  0.706260  0.654265
			 0.189290  0.503436  0.843043
			 0.320836  0.439677  0.838897
			 0.205033  0.215006  0.954848
			 0.191752  0.260438  0.946257
			 0.274078  0.258199  0.926399
			 0.266551  0.338416  0.902455
			 0.394476  0.303966  0.867175
			 0.433943  0.106993  0.894565
			 0.490509  0.066298  0.868911
			 0.407889  0.143138  0.901742
			 0.331931  0.309280  0.891161
			 0.420657  0.136384  0.896910
			-0.112718  0.812871 -0.571432
			-0.048492  0.767856 -0.638784
			 0.041226  0.726017 -0.686440
			 0.088301  0.543153 -0.834978
			 0.153612  0.500430 -0.852041
			 0.322063  0.400121 -0.858009
			 0.107666  0.241205 -0.964483
			 0.212837  0.015832 -0.976960
			 0.193120  0.041110 -0.980313
			 0.376765  0.019099 -0.926112
			 0.253182  0.346966 -0.903058
			 0.179547 -0.006133 -0.983730
			-0.262212 -0.256376 -0.930331
			-0.167609 -0.342676 -0.924381
			 0.005426 -0.501215 -0.865306
			 0.302965 -0.386728 -0.871007
			 0.192693 -0.519503 -0.832458
			 0.221252 -0.566225 -0.794001
			 0.256965 -0.625962 -0.736302
			 0.264495 -0.716092 -0.645952
			 0.220075 -0.755508 -0.617070
			-0.107235 -0.526497 -0.843387
			-0.037262 -0.647449 -0.761197
			-0.005465 -0.572391 -0.819963
			 0.065691 -0.689333 -0.721460
			 0.021583 -0.531650 -0.846689
			 0.100586 -0.517066 -0.850015
			 0.175748 -0.424919 -0.888007
			 0.119226  0.468050 -0.875622
			 0.231467  0.259519 -0.937589
			 0.207908 -0.104452 -0.972555
			 0.242325 -0.001656 -0.970194
			 0.316912 -0.338222 -0.886100
			 0.188341  0.477233 -0.858357
			 0.044257  0.597704 -0.800494
			 0.123509  0.468692 -0.874685
			 0.228618  0.413344 -0.881408
			-0.057685  0.685258 -0.726013
			 0.003668  0.608943 -0.793205
			 0.032056  0.706507 -0.706979
			-0.633435  0.772685 -0.041448
			-0.635062  0.762522 -0.123515
			-0.596540  0.768486 -0.231450
			-0.653892  0.753850 -0.064311
			-0.621303  0.766332 -0.163454
			-0.349646  0.877546 -0.328115
			-0.450739  0.866289 -0.215356
			-0.497139  0.846491 -0.190538
			-0.548590  0.809234 -0.210213
			-0.123321  0.793590 -0.595824
			-0.158919  0.799795 -0.578855
			-0.207730  0.849984 -0.484123
			-0.684281  0.697310  0.213350
			-0.614101  0.786839  0.061362
			-0.683054  0.717896  0.134396
			-0.718740  0.627801  0.298796
			-0.708432  0.636033  0.305919
			-0.721912  0.640955  0.260806
			-0.328337  0.637296  0.697172
			-0.404280  0.608413  0.682928
			-0.474625  0.572619  0.668460
			-0.749947  0.369193  0.548886
			-0.679836  0.437382  0.588659
			-0.833306  0.344217  0.432569
			-0.613069  0.471293  0.634058
			-0.704413  0.353501  0.615499
			-0.868340  0.249142  0.428852
			-0.791178  0.363641  0.491734
			-0.795541  0.276575  0.539093
			-0.735546  0.408237  0.540661
			-0.746048  0.574691  0.336368
			-0.728656  0.495871  0.472411
			-0.736577  0.555410  0.385970
			-0.736986  0.595796  0.319184
			-0.699413  0.432064  0.569335
			 0.234470  0.433501  0.870115
			 0.053546  0.399978  0.914959
			 0.294218  0.333791  0.895555
			-0.168738  0.577120  0.799037
			-0.354478  0.588290  0.726815
			-0.293396  0.572121  0.765896
			-0.155723  0.497154  0.853574
			-0.147782  0.478886  0.865349
			 0.019800  0.157459  0.987327
			-0.070967  0.331521  0.940775
			-0.021933  0.118968  0.992656
			 0.010368  0.190189  0.981693
			-0.063590  0.447649  0.891945
			 0.180561  0.983457  0.014520
			 0.014522  0.933170 -0.359141
			-0.074496  0.889629 -0.450568
			 0.127324  0.936170 -0.327679
			 0.195275  0.977132 -0.084147
			 0.098987  0.972054 -0.212866
			 0.203604  0.876357 -0.436514
			 0.206390  0.869137 -0.449448
			 0.141521  0.892282 -0.428724
			 0.121174  0.919068 -0.375008
			 0.155315  0.940150  0.303308
			 0.155488  0.932690  0.325444
			 0.262876  0.932099  0.249175
			 0.242840  0.968885  0.047857
			 0.249110  0.953742  0.168286
			 0.269440  0.881232  0.388371
			 0.359137  0.646499  0.673098
			 0.302307  0.828777  0.470893
			 0.359305  0.766372  0.532516
			 0.432093  0.669481  0.604227
			 0.290800  0.589126  0.753900
			 0.393403  0.599284  0.697203
			 0.462016  0.555306  0.691503
			 0.398327  0.497045  0.770897
			 0.435596  0.562097  0.703067
			 0.463659  0.465134  0.754102
			 0.427577  0.383397  0.818648
			 0.402199  0.382025  0.832041
			 0.532545  0.273999  0.800825
			 0.562837  0.163336  0.810269
			 0.478770  0.175152  0.860292
			 0.441159  0.278285  0.853192
			 0.366558  0.378540  0.849908
			 0.473992  0.264456  0.839878
			 0.529005  0.192608  0.826472
			 0.310992  0.063823  0.948267
			 0.269607  0.112065  0.956427
			 0.354628  0.106831  0.928885
			 0.508284 -0.037243  0.860384
			 0.501183 -0.114649  0.857713
			 0.471150 -0.007914  0.882018
			 0.544905 -0.143965  0.826046
			 0.430786  0.076205  0.899231
			 0.469411 -0.126014  0.873942
			 0.548503 -0.119609  0.827549
			-0.071294  0.844814 -0.530289
			-0.029879  0.862438 -0.505280
			-0.022742  0.897645 -0.440131
			 0.065204  0.802694 -0.592816
			 0.141468  0.793388 -0.592049
			 0.205947  0.567472 -0.797221
			 0.251266  0.707645 -0.660382
			 0.308676  0.357274 -0.881518
			 0.365817  0.171650 -0.914721
			 0.405762  0.144295 -0.902517
			 0.479868  0.032878 -0.876724
			 0.374561 -0.086675 -0.923142
			 0.447195 -0.161650 -0.879708
			 0.407854 -0.203556 -0.890068
			 0.401897 -0.328959 -0.854556
			 0.471739 -0.366661 -0.801887
			 0.090098 -0.719927 -0.688177
			 0.344521 -0.493553 -0.798568
			 0.243759 -0.631817 -0.735792
			 0.268312 -0.573344 -0.774135
			 0.265428 -0.567105 -0.779705
			 0.235393 -0.733517 -0.637607
			 0.205636 -0.784410 -0.585162
			 0.224079 -0.806630 -0.546933
			 0.186267 -0.771285 -0.608625
			 0.117923 -0.709201 -0.695075
			 0.150349 -0.767615 -0.623027
			 0.161753 -0.678776 -0.716310
			 0.176942 -0.602734 -0.778076
			 0.334439 -0.518039 -0.787265
			 0.258231 -0.591525 -0.763816
			 0.379387  0.114593 -0.918115
			 0.359107  0.206430 -0.910181
			 0.376892 -0.073026 -0.923374
			 0.329165 -0.232324 -0.915247