<?xml version="1.0"?>
<VTKFile type="PolyData" version="0.1" byte_order="LittleEndian" compressor="vtkZLibDataCompressor">
	<PolyData>
		<Piece NumberOfPoints="12932" NumberOfVerts="0" NumberOfLines="0" NumberOfStrips="0" NumberOfPolys="25868">
		<PointData Normals="Normals">
		<DataArray type="Float32" Name="Normals" NumberOfComponents="3" format="ascii">
			 0.099679  0.956143 -0.275418
			 0.634604  0.653848 -0.412020
			 0.131188  0.691053 -0.710799
			 0.067163  0.997635 -0.014633
			 0.640337  0.767559 -0.028664
			-0.400587  0.800438 -0.445902
			-0.465315  0.878363 -0.109362
			 0.765180  0.480924 -0.428032
			 0.418973  0.586544 -0.693129
			 0.852133  0.517251 -0.079499
			-0.208531  0.668503 -0.713876
			 0.056150  0.998354  0.011673
			 0.604947  0.795657  0.031136
			-0.443996  0.895193 -0.038688
			 0.851889  0.519176  0.068864
			-0.597553  0.650827 -0.468353
			-0.669546  0.712329 -0.210466
			-0.673012  0.731932 -0.106446
			 0.619704  0.590794 -0.516652
			 0.757255  0.547110 -0.356702
			 0.921219  0.379059 -0.087584
			-0.015121  0.767376 -0.641019
			 0.419939  0.668765 -0.613518
			 0.935560  0.340636  0.093244
			-0.559808  0.709389 -0.428232
			 0.049414  0.998651  0.015929
			 0.622165  0.778653  0.081307
			-0.405455  0.913563 -0.031774
			 0.847868  0.511906  0.138101
			-0.654117  0.746977 -0.118984
			 0.937041  0.275633  0.214431
			-0.721518  0.625629 -0.296650
			-0.730802  0.666404 -0.147762
			-0.724673  0.677335 -0.126750
			 0.620628  0.674717 -0.399472
			 0.821528  0.526930 -0.217800
			 0.985962  0.142892 -0.086380
			 0.995163  0.077689  0.060123
			 0.973641  0.167961  0.154315
			 0.164109  0.726871 -0.666879
			-0.308604  0.847610 -0.431648
			 0.531121  0.562458 -0.633681
			 0.452272  0.504802 -0.735271
			-0.621392  0.752569 -0.217972
			-0.684990  0.699077 -0.205133
			 0.078136  0.993694  0.080422
			 0.608073  0.787195  0.102815
			-0.371071  0.928448  0.017072
			 0.900730  0.382199  0.206419
			-0.576433  0.815288 -0.055061
			-0.730502  0.661439 -0.169898
			-0.728376  0.670312 -0.141952
			 0.936500  0.201294  0.287139
			 0.942032  0.139035  0.305360
			 0.956878  0.133892  0.257794
			-0.686123  0.717518 -0.120012
			-0.699052  0.705140 -0.118765
			 0.773908  0.491210 -0.399724
			 0.902300  0.017674 -0.430747
			 0.946680 -0.211144 -0.243344
			 0.991716 -0.124033 -0.033396
			 0.988516 -0.077241  0.129885
			 0.978709 -0.010106  0.205003
			 0.114428  0.800185 -0.588736
			-0.385126  0.726806 -0.568710
			-0.627576  0.711400 -0.316318
			 0.609052  0.207116 -0.765610
			 0.328819  0.538823 -0.775595
			 0.511596  0.249744 -0.822130
			 0.703946  0.017214 -0.710045
			-0.759532  0.609149 -0.228141
			-0.735588  0.640757 -0.219865
			-0.697628  0.702017 -0.143134
			 0.065305  0.980740  0.184074
			 0.766197  0.604674  0.217510
			-0.373050  0.915846  0.148528
			-0.538427  0.839081  0.077713
			 0.924149  0.221080  0.311565
			 0.939549  0.169774  0.297364
			-0.705960  0.707633 -0.029601
			-0.736607  0.659840 -0.148397
			-0.749818  0.656125 -0.085285
			 0.933547  0.092705  0.346260
			 0.953416 -0.007812  0.301556
			-0.704579  0.704077 -0.088565
			-0.732355  0.675469 -0.086013
			 0.778500 -0.176829 -0.602220
			 0.920315 -0.219264 -0.323951
			 0.966452 -0.226186 -0.121699
			 0.841057 -0.192318 -0.505605
			 0.976989 -0.205344  0.057675
			 0.966377 -0.161485  0.200093
			-0.005261  0.586778 -0.809731
			-0.326770  0.407406 -0.852785
			-0.687585  0.496707 -0.529632
			-0.771791  0.509198 -0.380862
			 0.188085  0.288630 -0.938785
			 0.611099  0.030994 -0.790947
			 0.353404  0.122309 -0.927440
			 0.732411 -0.124360 -0.669409
			 0.873557 -0.170640 -0.455830
			-0.841551  0.427537 -0.330158
			-0.819963  0.473532 -0.321603
			-0.780545  0.556580 -0.284549
			-0.778243  0.596379 -0.196649
			-0.789060  0.606163 -0.099752
			 0.122978  0.795352  0.593541
			 0.726723  0.589891  0.351996
			-0.319805  0.829253  0.458328
			 0.862524  0.149074  0.483558
			-0.424622  0.830535  0.360427
			-0.651435  0.749717  0.116436
			 0.921481  0.104521  0.374096
			-0.733872  0.679279  0.003452
			-0.743873  0.666053 -0.055002
			 0.891272  0.028293  0.452585
			 0.922922 -0.088214  0.374744
			 0.902982 -0.057280  0.425843
			 0.946196 -0.148237  0.287644
			-0.801928  0.594220 -0.061758
			-0.811407  0.578865 -0.080835
			 0.934158 -0.286392 -0.212906
			 0.956741 -0.288398 -0.038397
			 0.961211 -0.253091  0.109627
			 0.932965 -0.257333  0.251705
			 0.036988  0.221555 -0.974446
			-0.644167  0.389114 -0.658514
			-0.314240  0.305436 -0.898867
			-0.818146  0.378647 -0.432739
			 0.576052 -0.041996 -0.816334
			 0.115233  0.182051 -0.976514
			 0.539021  0.096944 -0.836695
			 0.651808 -0.156529 -0.742055
			 0.772490 -0.208449 -0.599841
			 0.714198 -0.297291 -0.633671
			 0.893276 -0.279329 -0.352185
			 0.947658 -0.287412 -0.139062
			-0.787386  0.484836 -0.380733
			-0.783446  0.495838 -0.374643
			-0.814675  0.496851 -0.299072
			-0.829817  0.504335 -0.238849
			-0.863557  0.486429 -0.132877
			-0.877933  0.473949 -0.067867
			 0.674643  0.282286  0.682034
			 0.291917  0.483645  0.825150
			-0.164808  0.718737  0.675467
			 0.852178  0.023067  0.522743
			 0.712885  0.163815  0.681880
			-0.089891  0.657491  0.748081
			-0.468658  0.801798  0.370782
			-0.662201  0.735989  0.140750
			-0.687038  0.726533  0.011312
			-0.790343  0.600757 -0.120201
			 0.784331 -0.071395  0.616220
			 0.823221 -0.042130  0.566155
			 0.873907 -0.245115  0.419767
			 0.856781 -0.259890  0.445403
			 0.839646 -0.212150  0.499988
			 0.904387 -0.269472  0.330860
			-0.883869  0.463270 -0.064477
			-0.886114  0.446858 -0.122965
			 0.953783 -0.300405  0.007386
			 0.940228 -0.291335  0.176338
			 0.905777 -0.276327  0.321266
			 0.858607 -0.309169  0.408912
			-0.626434  0.578554 -0.522356
			 0.018224  0.605371 -0.795735
			 0.422291  0.588596 -0.689366
			 0.709243  0.173539 -0.683271
			 0.634174 -0.177792 -0.752471
			 0.818919 -0.148544 -0.554352
			 0.714580 -0.226643 -0.661823
			 0.791757 -0.369138 -0.486680
			 0.790167 -0.400489 -0.463945
			 0.728152 -0.397347 -0.558489
			 0.729852 -0.487469 -0.479260
			 0.895365 -0.375668 -0.239156
			 0.940823 -0.331831 -0.068846
			-0.740734  0.574340 -0.348492
			-0.680456  0.678418 -0.276999
			-0.756800  0.564628 -0.329315
			-0.808398  0.518835 -0.278033
			-0.862991  0.471739 -0.180855
			-0.891688  0.444333 -0.086372
			-0.898855  0.435039 -0.052924
			 0.249839  0.385479  0.888249
			-0.034772  0.442519  0.896085
			 0.756861 -0.108003  0.644590
			 0.575269 -0.050238  0.816420
			-0.125660  0.771468  0.623736
			 0.411229  0.482315  0.773475
			 0.325523  0.149715  0.933606
			-0.494781  0.790559  0.360843
			-0.508398  0.844968  0.166016
			-0.675889  0.735055 -0.053554
			-0.883176  0.421880 -0.204984
			-0.853317  0.483418 -0.195340
			 0.752607 -0.042882  0.657072
			 0.677022 -0.085224  0.731012
			 0.787657 -0.140619  0.599853
			 0.830980 -0.311309  0.461041
			 0.808771 -0.302946  0.504096
			-0.904142  0.420366 -0.076285
			-0.909010  0.384495 -0.160826
			 0.940892 -0.328365  0.083054
			 0.908080 -0.321655  0.268195
			 0.854328 -0.273028  0.442244
			 0.868162 -0.329219  0.371362
			 0.842834 -0.274814  0.462718
			-0.297943  0.892187 -0.339460
			-0.583716  0.780636 -0.223347
			 0.083658  0.807288 -0.584198
			 0.716374  0.182519 -0.673420
			 0.473639  0.706465 -0.525903
			 0.103997  0.867703 -0.486083
			 0.777446 -0.102426 -0.620553
			 0.803923 -0.212731 -0.555386
			 0.778536 -0.335335 -0.530502
			 0.812876 -0.483080 -0.325371
			 0.776066 -0.371784 -0.509410
			 0.760990 -0.481214 -0.435117
			 0.780820 -0.557260 -0.282456
			 0.874164 -0.462228 -0.148939
			 0.910794 -0.412317 -0.021198
			-0.675118  0.702131 -0.226336
			-0.567216  0.809426 -0.151969
			-0.760512  0.604019 -0.238291
			-0.788145  0.595791 -0.154468
			-0.814484  0.574674 -0.079784
			-0.824831  0.563870 -0.041286
			-0.831389  0.554211 -0.040532
			-0.007166  0.848817  0.528639
			 0.548921  0.459623  0.698164
			 0.668879  0.089347  0.737983
			 0.749123  0.196951  0.632476
			-0.290976  0.928728  0.229779
			-0.546284  0.837342  0.020791
			-0.786934  0.585516 -0.194694
			-0.909520  0.353808 -0.218159
			-0.900275  0.355201 -0.251671
			 0.737447 -0.040496  0.674190
			 0.778527 -0.211796  0.590795
			 0.841808 -0.284841  0.458504
			 0.837754 -0.222730  0.498558
			 0.787609 -0.117416  0.604885
			-0.846437  0.524518 -0.091791
			-0.878085  0.443456 -0.179760
			 0.931843 -0.340929  0.124242
			 0.928748 -0.240371  0.282222
			 0.858371 -0.287645  0.424805
			-0.216484  0.950905 -0.221165
			-0.406813  0.908610 -0.094504
			-0.469404  0.876556 -0.106347
			 0.785005  0.315772 -0.532968
			 0.873937 -0.019815 -0.485636
			 0.727526  0.516580 -0.451499
			 0.461756  0.835142 -0.298863
			 0.091280  0.944872 -0.314458
			 0.104260  0.900570 -0.422023
			 0.891828 -0.246465 -0.379339
			 0.838519 -0.291281 -0.460479
			 0.868891 -0.217323 -0.444746
			 0.824724 -0.388881 -0.410612
			 0.818005 -0.473141 -0.327116
			 0.841124 -0.523211 -0.136968
			 0.846416 -0.483917 -0.222272
			 0.902126 -0.424963 -0.074664
			-0.551840  0.828946 -0.091220
			-0.641203  0.759296 -0.111034
			-0.485197  0.872789 -0.053138
			-0.668143  0.742076 -0.053932
			-0.675467  0.736987 -0.024369
			-0.679445  0.733587 -0.014300
			-0.695028  0.718342 -0.030341
			 0.480773  0.565464  0.670155
			 0.163926  0.860179  0.482928
			 0.715931  0.138859  0.684223
			 0.717556  0.105055  0.688532
			 0.770984 -0.058639  0.634149
			-0.338422  0.929084  0.149240
			-0.628009  0.775079 -0.069691
			-0.876794  0.340882 -0.339164
			-0.853558  0.455474 -0.252948
			-0.888990  0.386571 -0.245478
			 0.869648 -0.232033  0.435744
			 0.852272 -0.243653  0.462888
			 0.804731 -0.202068  0.558191
			 0.820487 -0.263731  0.507196
			 0.787145 -0.137904  0.601153
			-0.739235  0.667926 -0.086057
			-0.787787  0.602787 -0.126646
			 0.943689 -0.308910  0.118429
			 0.901351 -0.177123  0.395213
			 0.929577 -0.229585  0.288406
			 0.883293 -0.163126  0.439527
			-0.219123  0.969857 -0.106592
			-0.370088  0.927058 -0.059988
			-0.403787  0.913436 -0.050894
			-0.444896  0.894879 -0.035484
			 0.876157  0.216541 -0.430649
			 0.959361  0.058962 -0.275953
			 0.835535  0.516932 -0.186178
			 0.371779  0.924434  0.084864
			 0.086266  0.991652 -0.095833
			 0.995953 -0.045700 -0.077391
			 0.959332 -0.134505 -0.248175
			 0.915545 -0.085801 -0.392957
			 0.931678 -0.154440 -0.328824
			 0.940833 -0.013243 -0.338611
			 0.885596 -0.305390 -0.349938
			 0.846398 -0.419186 -0.328472
			 0.850087 -0.445024 -0.281612
			 0.876038 -0.448666 -0.176792
			 0.859926 -0.457713 -0.225889
			 0.919968 -0.389243 -0.046368
			-0.479901  0.876992 -0.024084
			-0.518839  0.854112 -0.036046
			-0.542304  0.839900 -0.021781
			-0.448085  0.893953 -0.008236
			-0.550995  0.834466 -0.008420
			-0.559129  0.829070  0.004190
			-0.578752  0.815437  0.010447
			-0.629403  0.777033  0.008502
			 0.662628  0.416085  0.622734
			 0.612765  0.583261  0.533222
			 0.030915  0.954949  0.295156
			 0.803873  0.081911  0.589134
			 0.808233 -0.032893  0.587943
			 0.780470 -0.147292  0.607596
			-0.470131  0.882161  0.027735
			-0.797314  0.562439 -0.218982
			-0.905434  0.275684 -0.322781
			-0.893171  0.299604 -0.335384
			-0.927035  0.256421 -0.273594
			-0.837690  0.504071 -0.210210
			 0.894356 -0.136346  0.426072
			 0.854981 -0.149785  0.496561
			 0.802554 -0.236163  0.547846
			-0.703201  0.709783 -0.041435
			-0.765649  0.631919 -0.120247
			 0.952856 -0.249524  0.172636
			 0.913244 -0.151227  0.378306
			-0.162802  0.986657  0.001855
			-0.341261  0.939966  0.001909
			-0.379280  0.924765 -0.030928
			-0.405041  0.914181 -0.014682
			-0.422956  0.906122 -0.007204
			 0.975822  0.177042  0.128169
			 0.731266  0.598125  0.327867
			 0.325456  0.874927  0.358583
			 0.072659  0.979384  0.188487
			 0.044606  0.996791  0.066472
			 0.984111  0.031187  0.174795
			 0.987335  0.137993  0.078283
			 0.992027  0.095870 -0.081806
			 0.965979  0.059740 -0.251627
			 0.968356 -0.007304 -0.249465
			 0.961626 -0.140813 -0.235472
			 0.976617  0.109616 -0.184940
			 0.883453 -0.373413 -0.282973
			 0.895350 -0.346987 -0.279191
			 0.887177 -0.418166 -0.195076
			 0.964855 -0.212542 -0.154532
			-0.439730  0.898024  0.013818
			-0.467111  0.884197 -0.001716
			-0.486598  0.873625 -0.001216
			-0.505411  0.862855  0.006406
			-0.396441  0.917500  0.032082
			-0.524370  0.851185  0.022813
			-0.568259  0.820393  0.063543
			-0.612165  0.787428  0.072188
			-0.709157  0.698785  0.093786
			 0.819255  0.182229  0.543704
			 0.587286  0.608010  0.534246
			 0.776956  0.241253  0.581495
			 0.300923  0.812338  0.499552
			-0.299952  0.942244  0.149011
			 0.845550 -0.105435  0.523381
			 0.814061 -0.121349  0.567960
			 0.807597 -0.200291  0.554680
			-0.630104  0.774458 -0.056430
			-0.900188  0.235749 -0.366175
			-0.888844  0.380468 -0.255343
			-0.883789  0.405437 -0.233535
			-0.881820  0.411751 -0.229900
			-0.905924  0.274750 -0.322203
			 0.900388 -0.081712  0.427346
			 0.824629 -0.154437  0.544184
			 0.864291 -0.013636  0.502807
			 0.897666 -0.007107  0.440618
			 0.795728 -0.221291  0.563779
			-0.772001  0.635095 -0.025858
			-0.780482  0.608073 -0.145242
			-0.775137  0.611261 -0.159759
			 0.949945 -0.081783  0.301524
			 0.997366 -0.018198  0.070220
			-0.156419  0.984844  0.074939
			-0.315089  0.948344  0.036899
			-0.325059  0.944874  0.039370
			-0.345263  0.938493 -0.004988
			-0.342150  0.939632 -0.004982
			-0.357500  0.933677  0.020999
			 0.873772  0.189706  0.447811
			 0.930173  0.012880  0.366895
			 0.614466  0.483391  0.623509
			 0.110174  0.951020  0.288829
			 0.333996  0.865083  0.374271
			-0.012711  0.971104  0.238319
			-0.016341  0.987859  0.154491
			 0.957936  0.079465  0.275760
			 0.970400  0.118592  0.210379
			 0.988392  0.126537  0.084086
			 0.989098  0.142335 -0.037751
			 0.977566  0.129078 -0.166444
			 0.950066 -0.196710 -0.242240
			 0.988854  0.083942 -0.122971
			 0.977620  0.107406 -0.180893
			 0.929891 -0.201925 -0.307456
			 0.932014 -0.193391 -0.306512
			 0.916920 -0.156934 -0.366918
			 0.937756 -0.056848 -0.342610
			 0.968680  0.092044 -0.230625
			-0.401096  0.913073  0.073615
			-0.454198  0.890300  0.032703
			-0.485016  0.874249  0.021182
			-0.524890  0.849872  0.046988
			-0.583252  0.809511  0.067153
			-0.281255  0.949884  0.136438
			-0.610025  0.785003  0.107891
			-0.686279  0.707313  0.169499
			-0.723863  0.671570  0.158165
			-0.742440  0.667362  0.058409
			 0.879727  0.026331  0.474749
			 0.683967  0.279167  0.673984
			 0.736923  0.029369  0.675338
			 0.805314  0.002973  0.592841
			 0.564143  0.496881  0.659433
			 0.108160  0.865191  0.489638
			-0.512096  0.853174  0.099253
			 0.870805 -0.160398  0.464727
			 0.807905 -0.184319  0.559746
			 0.878228 -0.155772  0.452163
			-0.863243  0.500428 -0.066207
			-0.922840  0.191736 -0.334073
			-0.961390  0.222598 -0.161798
			-0.799058  0.565429 -0.204444
			-0.869822  0.415580 -0.265900
			 0.922356  0.077572  0.378472
			 0.942605  0.047767  0.330475
			 0.827460  0.041264  0.560006
			 0.894201  0.244033  0.375302
			-0.763731  0.641081 -0.075696
			-0.718874  0.671811 -0.178577
			-0.770700  0.602583 -0.207161
			-0.741928  0.606388 -0.286071
			 0.972362  0.089844  0.215499
			 0.950141  0.311648 -0.010382
			-0.161546  0.968201  0.191022
			-0.296691  0.951076  0.086184
			-0.290299  0.954482  0.068496
			-0.221563  0.972142  0.076485
			-0.260435  0.965258  0.021230
			-0.235650  0.971768 -0.011705
			-0.231385  0.971853  0.044297
			 0.799554  0.015917  0.600384
			 0.886260 -0.031767  0.462098
			 0.939504  0.036128  0.340629
			 0.919203 -0.053829  0.390088
			 0.472337  0.671577  0.570860
			 0.724389  0.027058  0.688860
			 0.162620  0.920133  0.356245
			 0.371548  0.896540  0.241179
			-0.040410  0.932500  0.358902
			 0.480168  0.848712  0.221647
			-0.044719  0.962432  0.267814
			 0.952454  0.035586  0.302596
			 0.961374  0.063845  0.267738
			 0.973698  0.006499  0.227748
			 0.992534  0.033614  0.117245
			 0.998662  0.049547 -0.014784
			 0.938009  0.281958 -0.201590
			 0.959831  0.267449 -0.084823
			 0.978360  0.020322 -0.205912
			 0.965443  0.240514 -0.100360
			 0.983785  0.119733 -0.133533
			 0.932400  0.227206 -0.281082
			 0.908991 -0.080708 -0.408927
			 0.950720 -0.053360 -0.305426
			 0.932412 -0.023469 -0.360634
			 0.895700 -0.077021 -0.437938
			 0.888071 -0.017507 -0.459374
			 0.897517  0.106836 -0.427843
			 0.910515  0.302339 -0.282054
			-0.413462  0.885618  0.211494
			-0.493466  0.862800  0.109854
			-0.562035  0.823586  0.076301
			-0.587772  0.804724  0.083320
			-0.665674  0.733842  0.135476
			-0.691665  0.702678  0.166861
			-0.124933  0.978219  0.165770
			-0.235879  0.913461  0.331587
			-0.690403  0.696691  0.194845
			-0.685028  0.705156  0.183005
			-0.664300  0.741493  0.094308
			-0.680923  0.732259 -0.011874
			 0.861324 -0.143961  0.487233
			 0.713733  0.188338  0.674621
			 0.732283  0.072153  0.677167
			 0.798974 -0.172427  0.576115
			 0.774526 -0.061214  0.629573
			 0.543146  0.496380  0.677200
			 0.650841  0.396488  0.647460
			-0.159013  0.927772  0.337571
			-0.845097  0.531568  0.056980
			 0.869404 -0.069453  0.489197
			 0.889381 -0.062269  0.452906
			 0.824891 -0.000690  0.565291
			 0.848469 -0.133656  0.512091
			-0.982428  0.186179  0.013156
			-0.899515  0.399841 -0.176065
			-0.926934  0.371395  0.053474
			-0.730900  0.668167 -0.139060
			 0.934040  0.316041  0.166397
			 0.797144  0.200029  0.569692
			 0.790910  0.307635  0.528982
			 0.825648  0.534074  0.181851
			 0.732083  0.548162  0.404442
			-0.698963  0.705540 -0.116894
			-0.663490  0.726371 -0.179351
			-0.726910  0.637387 -0.255616
			-0.723882  0.604995 -0.331627
			-0.712429  0.628115 -0.312916
			 0.857468  0.512616 -0.044431
			 0.697307  0.605179 -0.384086
			-0.126175  0.943114  0.307597
			-0.199638  0.931981  0.302582
			-0.278643  0.941798  0.188082
			-0.260084  0.958115  0.119883
			-0.191997  0.975575  0.106724
			-0.097194  0.986089  0.134840
			-0.124417  0.987767  0.094008
			-0.189863  0.981740  0.011765
			-0.136085  0.989930 -0.038980
			-0.113668  0.993390  0.016011
			 0.858236 -0.124340  0.497967
			 0.869772 -0.106339  0.481860
			 0.881436 -0.152059  0.447157
			 0.942465 -0.037096  0.332240
			 0.767956  0.398469  0.501464
			 0.891374 -0.153911  0.426338
			 0.332758  0.914752  0.229132
			 0.042065  0.934779  0.352729
			 0.510931  0.848912  0.135267
			 0.582733  0.802045  0.130940
			 0.879392  0.423921  0.216702
			 0.958550  0.060829  0.278354
			 0.951049  0.014106  0.308717
			 0.971909  0.017121  0.234735
			 0.988748  0.050420  0.140839
			 0.996606  0.077337  0.028217
			 0.939069  0.318321 -0.129698
			 0.871733  0.398280 -0.285404
			 0.954945  0.288049 -0.071475
			 0.951695  0.299023 -0.069731
			 0.962743  0.144962 -0.228279
			 0.951095  0.279586 -0.131340
			 0.960987  0.261261 -0.090813
			 0.919291  0.320872 -0.227917
			 0.930346  0.046301 -0.363748
			 0.899651 -0.000126 -0.436610
			 0.853870 -0.033116 -0.519433
			 0.843754 -0.013477 -0.536560
			 0.828170  0.064309 -0.556775
			 0.751242  0.241259 -0.614353
			-0.488618  0.787953  0.374676
			-0.656874  0.704202  0.269473
			-0.611697  0.770359  0.179930
			-0.699065  0.695972  0.164109
			-0.715145  0.683592  0.145841
			-0.750240  0.643032  0.153786
			-0.722506  0.671991  0.162520
			-0.694523  0.698948  0.170616
			-0.262929  0.953607  0.146635
			-0.318541  0.885908  0.337192
			-0.667795  0.729207  0.149354
			-0.687076  0.720490  0.093917
			-0.689299  0.723833  0.030523
			-0.708018  0.703433 -0.062391
			 0.759454  0.157650  0.631170
			 0.812842 -0.057299  0.579659
			 0.809994 -0.159387  0.564363
			 0.634024  0.469094  0.614788
			 0.755778  0.212880  0.619259
			 0.765041  0.105032  0.635359
			-0.129381  0.655081  0.744398
			-0.873366  0.429897  0.228956
			-0.985945  0.015778  0.166322
			 0.860347  0.086781  0.502267
			 0.836600 -0.039959  0.546355
			 0.818246 -0.155879  0.553331
			 0.843557 -0.077246  0.531456
			-0.913645  0.112561  0.390619
			-0.720911  0.692305  0.031650
			-0.540952  0.722018  0.431347
			-0.598463  0.800075 -0.041490
			 0.694302  0.711322 -0.109383
			 0.718341  0.415449  0.558021
			 0.747565  0.219804  0.626764
			 0.578154  0.809145  0.104981
			 0.577846  0.619187  0.531696
			 0.438416  0.821643  0.364272
			-0.728825  0.653856 -0.203190
			-0.624906  0.763430 -0.163297
			-0.750585  0.568726 -0.336412
			-0.781139  0.499806 -0.374187
			-0.778968  0.513085 -0.360489
			 0.341764  0.862889 -0.372316
			 0.350457  0.416980 -0.838634
			 0.272688  0.700862 -0.659116
			 0.081280  0.973102  0.215561
			-0.083135  0.953885  0.288429
			-0.105898  0.913020  0.393929
			-0.195678  0.884056  0.424447
			-0.253123  0.911684  0.323669
			-0.219809  0.948201  0.229344
			-0.170812  0.974546  0.145199
			-0.091481  0.987336  0.129608
			-0.134996  0.982820  0.125862
			-0.093342  0.985881  0.139020
			-0.118798  0.990813  0.064633
			-0.133340  0.990145 -0.042823
			-0.184180  0.982497 -0.027868
			 0.880010 -0.075942  0.468844
			 0.932995  0.009535  0.359762
			 0.866387 -0.108443  0.487456
			 0.870342 -0.133666  0.473959
			 0.931642 -0.108722  0.346732
			 0.867327 -0.242960  0.434413
			 0.870397 -0.216775  0.442061
			 0.415035  0.901756  0.120759
			 0.554007  0.830423  0.058935
			 0.601916  0.792508  0.098122
			 0.851054  0.489133  0.190935
			 0.939842 -0.036480  0.339656
			 0.961242  0.047275  0.271621
			 0.955141  0.050863  0.291750
			 0.957505  0.076753  0.278018
			 0.953266  0.038297  0.299694
			 0.958150 -0.013595  0.285944
			 0.975259  0.171684  0.139266
			 0.977865  0.203053  0.050484
			 0.894590  0.317640 -0.314345
			 0.968964  0.121760 -0.215133
			 0.996241  0.074632 -0.043985
			 0.988364  0.137938 -0.064109
			 0.906474  0.324903 -0.269708
			 0.958886  0.238490 -0.153821
			 0.934846  0.334642 -0.118653
			 0.938762  0.185672 -0.290262
			 0.917062  0.331564 -0.221499
			 0.959006  0.269699 -0.087001
			 0.886486  0.120402 -0.446818
			 0.806226  0.170990 -0.566359
			 0.673234  0.177015 -0.717929
			 0.665797  0.220624 -0.712769
			 0.452562  0.209253 -0.866834
			-0.626522  0.724450  0.287475
			-0.700654  0.653173  0.287138
			-0.805991  0.538838  0.245013
			-0.834039  0.496303  0.240961
			-0.816216  0.531886  0.225585
			-0.869140  0.459562  0.182754
			-0.836035  0.516466  0.185224
			-0.812951  0.562414  0.151000
			-0.822439  0.556372  0.118510
			-0.759640  0.637152  0.130326
			-0.510815  0.845369  0.156264
			-0.762848  0.631939  0.136810
			-0.795742  0.590265  0.135580
			-0.790782  0.607450  0.075291
			-0.790643  0.612246 -0.006134
			-0.799109  0.592461 -0.102050
			 0.742067  0.168495  0.648804
			 0.780752  0.018387  0.624571
			 0.830422 -0.194733  0.521995
			 0.802714 -0.137206  0.580366
			 0.816336 -0.151702  0.557299
			 0.447487  0.005055  0.894276
			 0.718315  0.134171  0.682658
			 0.521052 -0.146857  0.840796
			-0.522601  0.043214  0.851481
			-0.852631 -0.176637  0.491752
			-0.765779 -0.292069  0.572956
			 0.859884  0.060958  0.506837
			 0.796472  0.129060  0.590742
			 0.825241  0.102037  0.555487
			 0.160937  0.018405  0.986793
			-0.493536  0.855733  0.155381
			-0.031175  0.550460  0.834279
			-0.143433  0.785145  0.602474
			-0.518571  0.854995  0.008227
			 0.277372  0.934786 -0.221900
			 0.541966  0.560360  0.626314
			 0.677610  0.353076  0.645122
			 0.233122  0.970931  0.054286
			 0.496087  0.718035  0.488184
			 0.316315  0.820654  0.475890
			 0.017750  0.980502  0.195708
			-0.830569  0.488960 -0.266595
			-0.610757  0.774978 -0.162434
			-0.877605  0.335323 -0.342590
			-0.912562  0.023124 -0.408283
			-0.778788  0.331509 -0.532532
			 0.140470  0.917822 -0.371310
			 0.042365  0.827528 -0.559823
			 0.151936  0.558906 -0.815193
			 0.179220  0.280362 -0.943015
			 0.244679  0.202287 -0.948268
			 0.113276  0.703189 -0.701922
			 0.180447  0.970684  0.158780
			 0.063233  0.960099  0.272419
			-0.026838  0.938337  0.344678
			-0.126657  0.900824  0.415300
			-0.211270  0.886640  0.411382
			-0.204807  0.876124  0.436418
			-0.194912  0.903547  0.381592
			-0.114498  0.922319  0.369077
			-0.121068  0.961288  0.247524
			-0.059487  0.977780  0.201014
			-0.114745  0.978999  0.168507
			-0.319086  0.937794  0.136844
			-0.314484  0.943811  0.101586
			-0.277390  0.959895  0.040694
			-0.513105  0.855983  0.063368
			 0.915330  0.019119  0.402251
			 0.893761 -0.104242  0.436262
			 0.931775  0.191349  0.308515
			 0.880320 -0.297435  0.369554
			 0.934391 -0.152729  0.321849
			 0.912606 -0.240529  0.330599
			 0.478174  0.875321  0.071854
			 0.603340  0.797268 -0.018527
			 0.605854  0.795557  0.005513
			 0.740371  0.665530  0.094451
			 0.913748  0.349734  0.206764
			 0.976261  0.014521  0.216112
			 0.967179 -0.031340  0.252157
			 0.984578  0.042875  0.169613
			 0.968873 -0.050979  0.242253
			 0.952384 -0.138010  0.271879
			 0.989574  0.113799  0.088275
			 0.978907  0.201380  0.034461
			 0.925020  0.033945 -0.378398
			 0.947450 -0.129733 -0.292417
			 0.985085 -0.123522 -0.119793
			 0.995011 -0.008490 -0.099404
			 0.963803  0.149601 -0.220688
			 0.980760  0.100339 -0.167459
			 0.912859  0.288552 -0.288836
			 0.919196  0.345048 -0.189793
			 0.892447  0.390873 -0.225292
			 0.871309  0.289025 -0.396591
			 0.835985  0.399308 -0.376407
			 0.770605  0.331043 -0.544590
			 0.625506  0.322452 -0.710469
			 0.446393  0.199168 -0.872390
			 0.304672  0.130401 -0.943488
			-0.808522  0.514966  0.284783
			-0.720719  0.647064  0.248743
			-0.899283  0.360253  0.248007
			-0.923626  0.289976  0.250659
			-0.928994  0.302283  0.213530
			-0.933408  0.309945  0.180789
			-0.936449  0.329285  0.120969
			-0.970071  0.234166  0.064258
			-0.937615  0.330050  0.109293
			-0.913238  0.392797  0.108203
			-0.933252  0.342203  0.109262
			-0.903019  0.419502  0.092598
			-0.872710  0.488210  0.005278
			-0.832091  0.550341 -0.068919
			-0.821783  0.557031 -0.119959
			 0.629559 -0.057336  0.774835
			 0.618068 -0.168914  0.767763
			 0.811692 -0.160215  0.561682
			 0.798865 -0.187260  0.571619
			 0.781586  0.013061  0.623660
			 0.718053 -0.291280  0.632104
			-0.187139 -0.338497  0.922171
			-0.129592 -0.311524  0.941360
			 0.813878  0.257271  0.520974
			 0.754727  0.174872  0.632303
			 0.775711  0.077575  0.626302
			 0.786429  0.009145  0.617613
			 0.375924  0.186789  0.907629
			 0.577274 -0.248707  0.777753
			 0.660560 -0.042104  0.749592
			 0.676293 -0.078299  0.732459
			-0.366628  0.897931  0.243523
			 0.408827  0.062248  0.910487
			 0.283239  0.179328  0.942135
			 0.294086  0.337024  0.894387
			 0.015646  0.690243  0.723408
			-0.459067  0.885907  0.066535
			 0.006608  0.911931 -0.410291
			-0.115557  0.974201 -0.193851
			 0.489123  0.565557  0.664006
			 0.279763  0.739354  0.612445
			 0.589757  0.466298  0.659358
			 0.010893  0.902599  0.430346
			-0.340948  0.937863 -0.064556
			-0.312811  0.938004  0.149322
			-0.892870  0.410987 -0.184048
			-0.578969  0.802024 -0.146806
			-0.709561 -0.410018 -0.573069
			-0.927450  0.346557 -0.140479
			-0.978129 -0.096286 -0.184370
			-0.614049 -0.346252 -0.709263
			-0.747687  0.375806 -0.547480
			-0.119004  0.697505 -0.706630
			 0.071807  0.649863 -0.756651
			-0.200632  0.849778 -0.487468
			 0.103713  0.544112 -0.832578
			 0.209820  0.299780 -0.930649
			 0.295508  0.090947 -0.951001
			 0.232267  0.112249 -0.966153
			 0.312254  0.935341  0.166238
			 0.165262  0.937438  0.306428
			 0.047899  0.932280  0.358553
			-0.137838  0.913155  0.383600
			-0.250166  0.897115  0.364145
			-0.209530  0.905885  0.368061
			-0.173511  0.882430  0.437276
			-0.137127  0.907374  0.397326
			-0.021536  0.934733  0.354698
			-0.007800  0.944438  0.328598
			-0.024685  0.947295  0.319410
			-0.221227  0.921974  0.317841
			-0.539393  0.810742  0.227491
			-0.532624  0.837386  0.122864
			-0.510349  0.851506  0.120340
			-0.640564  0.756028  0.134532
			 0.917268  0.143608  0.371479
			 0.931070 -0.016463  0.364468
			 0.950156 -0.142777  0.277162
			 0.910987 -0.313993  0.267417
			 0.952648 -0.163196  0.256571
			 0.938721 -0.291440  0.184026
			 0.580668  0.813287  0.037273
			 0.718849  0.674484 -0.168306
			 0.651930  0.747770 -0.125806
			 0.774916  0.631936  0.012692
			 0.920378  0.383570  0.076021
			 0.953423  0.169042  0.249818
			 0.964299 -0.029877  0.263124
			 0.983983 -0.097425  0.149286
			 0.979984 -0.041619  0.194675
			 0.946297 -0.230524  0.226671
			 0.960869 -0.251648  0.115773
			 0.951514 -0.275552  0.136720
			 0.966781 -0.252143  0.041937
			 0.991334 -0.128048  0.029330
			 0.870030 -0.454868  0.190111
			 0.999892 -0.008758 -0.011781
			 0.948925 -0.191286 -0.250898
			 0.917663 -0.260952 -0.299664
			 0.953993 -0.122547 -0.273642
			 0.957995  0.094380 -0.270812
			 0.901431  0.208575 -0.379365
			 0.973920 -0.181950 -0.135551
			 0.902900  0.289262 -0.317960